<?xml version="1.0"?>
<VTKFile type="StructuredGrid">
<StructuredGrid WholeExtent="0 68 0 35 0 0 ">
<Piece Extent="0 68 0 35 0 0 ">
<Points>
<DataArray type="Float64" format="ascii" NumberOfComponents="3">
0.000000e+00 0.000000e+00 0.000000e+00
1.029412e-01 0.000000e+00 0.000000e+00
2.058824e-01 0.000000e+00 0.000000e+00
3.088235e-01 0.000000e+00 0.000000e+00
4.117647e-01 0.000000e+00 0.000000e+00
5.147059e-01 0.000000e+00 0.000000e+00
6.176471e-01 0.000000e+00 0.000000e+00
7.205882e-01 0.000000e+00 0.000000e+00
8.235294e-01 0.000000e+00 0.000000e+00
9.264706e-01 0.000000e+00 0.000000e+00
1.029412e+00 0.000000e+00 0.000000e+00
1.132353e+00 0.000000e+00 0.000000e+00
1.235294e+00 0.000000e+00 0.000000e+00
1.338235e+00 0.000000e+00 0.000000e+00
1.441176e+00 0.000000e+00 0.000000e+00
1.544118e+00 0.000000e+00 0.000000e+00
1.647059e+00 0.000000e+00 0.000000e+00
1.750000e+00 0.000000e+00 0.000000e+00
1.852941e+00 0.000000e+00 0.000000e+00
1.955882e+00 0.000000e+00 0.000000e+00
2.058824e+00 0.000000e+00 0.000000e+00
2.161765e+00 0.000000e+00 0.000000e+00
2.264706e+00 0.000000e+00 0.000000e+00
2.367647e+00 0.000000e+00 0.000000e+00
2.470588e+00 0.000000e+00 0.000000e+00
2.573529e+00 0.000000e+00 0.000000e+00
2.676471e+00 0.000000e+00 0.000000e+00
2.779412e+00 0.000000e+00 0.000000e+00
2.882353e+00 0.000000e+00 0.000000e+00
2.985294e+00 0.000000e+00 0.000000e+00
3.088235e+00 0.000000e+00 0.000000e+00
3.191176e+00 0.000000e+00 0.000000e+00
3.294118e+00 0.000000e+00 0.000000e+00
3.397059e+00 0.000000e+00 0.000000e+00
3.500000e+00 0.000000e+00 0.000000e+00
3.602941e+00 0.000000e+00 0.000000e+00
3.705882e+00 0.000000e+00 0.000000e+00
3.808824e+00 0.000000e+00 0.000000e+00
3.911765e+00 0.000000e+00 0.000000e+00
4.014706e+00 0.000000e+00 0.000000e+00
4.117647e+00 0.000000e+00 0.000000e+00
4.220588e+00 0.000000e+00 0.000000e+00
4.323529e+00 0.000000e+00 0.000000e+00
4.426471e+00 0.000000e+00 0.000000e+00
4.529412e+00 0.000000e+00 0.000000e+00
4.632353e+00 0.000000e+00 0.000000e+00
4.735294e+00 0.000000e+00 0.000000e+00
4.838235e+00 0.000000e+00 0.000000e+00
4.941176e+00 0.000000e+00 0.000000e+00
5.044118e+00 0.000000e+00 0.000000e+00
5.147059e+00 0.000000e+00 0.000000e+00
5.250000e+00 0.000000e+00 0.000000e+00
5.352941e+00 0.000000e+00 0.000000e+00
5.455882e+00 0.000000e+00 0.000000e+00
5.558824e+00 0.000000e+00 0.000000e+00
5.661765e+00 0.000000e+00 0.000000e+00
5.764706e+00 0.000000e+00 0.000000e+00
5.867647e+00 0.000000e+00 0.000000e+00
5.970588e+00 0.000000e+00 0.000000e+00
6.073529e+00 0.000000e+00 0.000000e+00
6.176471e+00 0.000000e+00 0.000000e+00
6.279412e+00 0.000000e+00 0.000000e+00
6.382353e+00 0.000000e+00 0.000000e+00
6.485294e+00 0.000000e+00 0.000000e+00
6.588235e+00 0.000000e+00 0.000000e+00
6.691176e+00 0.000000e+00 0.000000e+00
6.794118e+00 0.000000e+00 0.000000e+00
6.897059e+00 0.000000e+00 0.000000e+00
7.000000e+00 0.000000e+00 0.000000e+00
0.000000e+00 1.057143e-01 0.000000e+00
1.029412e-01 1.057143e-01 0.000000e+00
2.058824e-01 1.057143e-01 0.000000e+00
3.088235e-01 1.057143e-01 0.000000e+00
4.117647e-01 1.057143e-01 0.000000e+00
5.147059e-01 1.057143e-01 0.000000e+00
6.176471e-01 1.057143e-01 0.000000e+00
7.205882e-01 1.057143e-01 0.000000e+00
8.235294e-01 1.057143e-01 0.000000e+00
9.264706e-01 1.057143e-01 0.000000e+00
1.029412e+00 1.057143e-01 0.000000e+00
1.132353e+00 1.057143e-01 0.000000e+00
1.235294e+00 1.057143e-01 0.000000e+00
1.338235e+00 1.057143e-01 0.000000e+00
1.441176e+00 1.057143e-01 0.000000e+00
1.544118e+00 1.057143e-01 0.000000e+00
1.647059e+00 1.057143e-01 0.000000e+00
1.750000e+00 1.057143e-01 0.000000e+00
1.852941e+00 1.057143e-01 0.000000e+00
1.955882e+00 1.057143e-01 0.000000e+00
2.058824e+00 1.057143e-01 0.000000e+00
2.161765e+00 1.057143e-01 0.000000e+00
2.264706e+00 1.057143e-01 0.000000e+00
2.367647e+00 1.057143e-01 0.000000e+00
2.470588e+00 1.057143e-01 0.000000e+00
2.573529e+00 1.057143e-01 0.000000e+00
2.676471e+00 1.057143e-01 0.000000e+00
2.779412e+00 1.057143e-01 0.000000e+00
2.882353e+00 1.057143e-01 0.000000e+00
2.985294e+00 1.057143e-01 0.000000e+00
3.088235e+00 1.057143e-01 0.000000e+00
3.191176e+00 1.057143e-01 0.000000e+00
3.294118e+00 1.057143e-01 0.000000e+00
3.397059e+00 1.057143e-01 0.000000e+00
3.500000e+00 1.057143e-01 0.000000e+00
3.602941e+00 1.057143e-01 0.000000e+00
3.705882e+00 1.057143e-01 0.000000e+00
3.808824e+00 1.057143e-01 0.000000e+00
3.911765e+00 1.057143e-01 0.000000e+00
4.014706e+00 1.057143e-01 0.000000e+00
4.117647e+00 1.057143e-01 0.000000e+00
4.220588e+00 1.057143e-01 0.000000e+00
4.323529e+00 1.057143e-01 0.000000e+00
4.426471e+00 1.057143e-01 0.000000e+00
4.529412e+00 1.057143e-01 0.000000e+00
4.632353e+00 1.057143e-01 0.000000e+00
4.735294e+00 1.057143e-01 0.000000e+00
4.838235e+00 1.057143e-01 0.000000e+00
4.941176e+00 1.057143e-01 0.000000e+00
5.044118e+00 1.057143e-01 0.000000e+00
5.147059e+00 1.057143e-01 0.000000e+00
5.250000e+00 1.057143e-01 0.000000e+00
5.352941e+00 1.057143e-01 0.000000e+00
5.455882e+00 1.057143e-01 0.000000e+00
5.558824e+00 1.057143e-01 0.000000e+00
5.661765e+00 1.057143e-01 0.000000e+00
5.764706e+00 1.057143e-01 0.000000e+00
5.867647e+00 1.057143e-01 0.000000e+00
5.970588e+00 1.057143e-01 0.000000e+00
6.073529e+00 1.057143e-01 0.000000e+00
6.176471e+00 1.057143e-01 0.000000e+00
6.279412e+00 1.057143e-01 0.000000e+00
6.382353e+00 1.057143e-01 0.000000e+00
6.485294e+00 1.057143e-01 0.000000e+00
6.588235e+00 1.057143e-01 0.000000e+00
6.691176e+00 1.057143e-01 0.000000e+00
6.794118e+00 1.057143e-01 0.000000e+00
6.897059e+00 1.057143e-01 0.000000e+00
7.000000e+00 1.057143e-01 0.000000e+00
0.000000e+00 2.114286e-01 0.000000e+00
1.029412e-01 2.114286e-01 0.000000e+00
2.058824e-01 2.114286e-01 0.000000e+00
3.088235e-01 2.114286e-01 0.000000e+00
4.117647e-01 2.114286e-01 0.000000e+00
5.147059e-01 2.114286e-01 0.000000e+00
6.176471e-01 2.114286e-01 0.000000e+00
7.205882e-01 2.114286e-01 0.000000e+00
8.235294e-01 2.114286e-01 0.000000e+00
9.264706e-01 2.114286e-01 0.000000e+00
1.029412e+00 2.114286e-01 0.000000e+00
1.132353e+00 2.114286e-01 0.000000e+00
1.235294e+00 2.114286e-01 0.000000e+00
1.338235e+00 2.114286e-01 0.000000e+00
1.441176e+00 2.114286e-01 0.000000e+00
1.544118e+00 2.114286e-01 0.000000e+00
1.647059e+00 2.114286e-01 0.000000e+00
1.750000e+00 2.114286e-01 0.000000e+00
1.852941e+00 2.114286e-01 0.000000e+00
1.955882e+00 2.114286e-01 0.000000e+00
2.058824e+00 2.114286e-01 0.000000e+00
2.161765e+00 2.114286e-01 0.000000e+00
2.264706e+00 2.114286e-01 0.000000e+00
2.367647e+00 2.114286e-01 0.000000e+00
2.470588e+00 2.114286e-01 0.000000e+00
2.573529e+00 2.114286e-01 0.000000e+00
2.676471e+00 2.114286e-01 0.000000e+00
2.779412e+00 2.114286e-01 0.000000e+00
2.882353e+00 2.114286e-01 0.000000e+00
2.985294e+00 2.114286e-01 0.000000e+00
3.088235e+00 2.114286e-01 0.000000e+00
3.191176e+00 2.114286e-01 0.000000e+00
3.294118e+00 2.114286e-01 0.000000e+00
3.397059e+00 2.114286e-01 0.000000e+00
3.500000e+00 2.114286e-01 0.000000e+00
3.602941e+00 2.114286e-01 0.000000e+00
3.705882e+00 2.114286e-01 0.000000e+00
3.808824e+00 2.114286e-01 0.000000e+00
3.911765e+00 2.114286e-01 0.000000e+00
4.014706e+00 2.114286e-01 0.000000e+00
4.117647e+00 2.114286e-01 0.000000e+00
4.220588e+00 2.114286e-01 0.000000e+00
4.323529e+00 2.114286e-01 0.000000e+00
4.426471e+00 2.114286e-01 0.000000e+00
4.529412e+00 2.114286e-01 0.000000e+00
4.632353e+00 2.114286e-01 0.000000e+00
4.735294e+00 2.114286e-01 0.000000e+00
4.838235e+00 2.114286e-01 0.000000e+00
4.941176e+00 2.114286e-01 0.000000e+00
5.044118e+00 2.114286e-01 0.000000e+00
5.147059e+00 2.114286e-01 0.000000e+00
5.250000e+00 2.114286e-01 0.000000e+00
5.352941e+00 2.114286e-01 0.000000e+00
5.455882e+00 2.114286e-01 0.000000e+00
5.558824e+00 2.114286e-01 0.000000e+00
5.661765e+00 2.114286e-01 0.000000e+00
5.764706e+00 2.114286e-01 0.000000e+00
5.867647e+00 2.114286e-01 0.000000e+00
5.970588e+00 2.114286e-01 0.000000e+00
6.073529e+00 2.114286e-01 0.000000e+00
6.176471e+00 2.114286e-01 0.000000e+00
6.279412e+00 2.114286e-01 0.000000e+00
6.382353e+00 2.114286e-01 0.000000e+00
6.485294e+00 2.114286e-01 0.000000e+00
6.588235e+00 2.114286e-01 0.000000e+00
6.691176e+00 2.114286e-01 0.000000e+00
6.794118e+00 2.114286e-01 0.000000e+00
6.897059e+00 2.114286e-01 0.000000e+00
7.000000e+00 2.114286e-01 0.000000e+00
0.000000e+00 3.171429e-01 0.000000e+00
1.029412e-01 3.171429e-01 0.000000e+00
2.058824e-01 3.171429e-01 0.000000e+00
3.088235e-01 3.171429e-01 0.000000e+00
4.117647e-01 3.171429e-01 0.000000e+00
5.147059e-01 3.171429e-01 0.000000e+00
6.176471e-01 3.171429e-01 0.000000e+00
7.205882e-01 3.171429e-01 0.000000e+00
8.235294e-01 3.171429e-01 0.000000e+00
9.264706e-01 3.171429e-01 0.000000e+00
1.029412e+00 3.171429e-01 0.000000e+00
1.132353e+00 3.171429e-01 0.000000e+00
1.235294e+00 3.171429e-01 0.000000e+00
1.338235e+00 3.171429e-01 0.000000e+00
1.441176e+00 3.171429e-01 0.000000e+00
1.544118e+00 3.171429e-01 0.000000e+00
1.647059e+00 3.171429e-01 0.000000e+00
1.750000e+00 3.171429e-01 0.000000e+00
1.852941e+00 3.171429e-01 0.000000e+00
1.955882e+00 3.171429e-01 0.000000e+00
2.058824e+00 3.171429e-01 0.000000e+00
2.161765e+00 3.171429e-01 0.000000e+00
2.264706e+00 3.171429e-01 0.000000e+00
2.367647e+00 3.171429e-01 0.000000e+00
2.470588e+00 3.171429e-01 0.000000e+00
2.573529e+00 3.171429e-01 0.000000e+00
2.676471e+00 3.171429e-01 0.000000e+00
2.779412e+00 3.171429e-01 0.000000e+00
2.882353e+00 3.171429e-01 0.000000e+00
2.985294e+00 3.171429e-01 0.000000e+00
3.088235e+00 3.171429e-01 0.000000e+00
3.191176e+00 3.171429e-01 0.000000e+00
3.294118e+00 3.171429e-01 0.000000e+00
3.397059e+00 3.171429e-01 0.000000e+00
3.500000e+00 3.171429e-01 0.000000e+00
3.602941e+00 3.171429e-01 0.000000e+00
3.705882e+00 3.171429e-01 0.000000e+00
3.808824e+00 3.171429e-01 0.000000e+00
3.911765e+00 3.171429e-01 0.000000e+00
4.014706e+00 3.171429e-01 0.000000e+00
4.117647e+00 3.171429e-01 0.000000e+00
4.220588e+00 3.171429e-01 0.000000e+00
4.323529e+00 3.171429e-01 0.000000e+00
4.426471e+00 3.171429e-01 0.000000e+00
[...]
<PointData>
<DataArray Name="Velocity" type="Float64" format="ascii" NumberOfComponents="3">
0.000000e+00 0.000000e+00 0
0.000000e+00 0.000000e+00 0
0.000000e+00 0.000000e+00 0
0.000000e+00 0.000000e+00 0
0.000000e+00 0.000000e+00 0
0.000000e+00 0.000000e+00 0
0.000000e+00 0.000000e+00 0
0.000000e+00 0.000000e+00 0
0.000000e+00 0.000000e+00 0
0.000000e+00 0.000000e+00 0
0.000000e+00 0.000000e+00 0
0.000000e+00 0.000000e+00 0
0.000000e+00 0.000000e+00 0
0.000000e+00 0.000000e+00 0
0.000000e+00 0.000000e+00 0
0.000000e+00 0.000000e+00 0
0.000000e+00 0.000000e+00 0
0.000000e+00 0.000000e+00 0
0.000000e+00 0.000000e+00 0
0.000000e+00 0.000000e+00 0
0.000000e+00 0.000000e+00 0
0.000000e+00 0.000000e+00 0
0.000000e+00 0.000000e+00 0
0.000000e+00 0.000000e+00 0
0.000000e+00 0.000000e+00 0
0.000000e+00 0.000000e+00 0
0.000000e+00 0.000000e+00 0
0.000000e+00 0.000000e+00 0
0.000000e+00 0.000000e+00 0
0.000000e+00 0.000000e+00 0
0.000000e+00 0.000000e+00 0
0.000000e+00 0.000000e+00 0
-5.900553e+01 0.000000e+00 0
0.000000e+00 0.000000e+00 0
0.000000e+00 0.000000e+00 0
1.878890e-15 0.000000e+00 0
0.000000e+00 0.000000e+00 0
0.000000e+00 0.000000e+00 0
0.000000e+00 0.000000e+00 0
0.000000e+00 0.000000e+00 0
-6.751462e+01 0.000000e+00 0
0.000000e+00 0.000000e+00 0
0.000000e+00 0.000000e+00 0
0.000000e+00 0.000000e+00 0
0.000000e+00 0.000000e+00 0
0.000000e+00 0.000000e+00 0
0.000000e+00 0.000000e+00 0
0.000000e+00 0.000000e+00 0
0.000000e+00 0.000000e+00 0
0.000000e+00 0.000000e+00 0
0.000000e+00 0.000000e+00 0
0.000000e+00 0.000000e+00 0
0.000000e+00 0.000000e+00 0
0.000000e+00 0.000000e+00 0
0.000000e+00 0.000000e+00 0
0.000000e+00 0.000000e+00 0
0.000000e+00 0.000000e+00 0
0.000000e+00 0.000000e+00 0
0.000000e+00 0.000000e+00 0
0.000000e+00 0.000000e+00 0
0.000000e+00 0.000000e+00 0
0.000000e+00 0.000000e+00 0
0.000000e+00 0.000000e+00 0
0.000000e+00 0.000000e+00 0
0.000000e+00 0.000000e+00 0
0.000000e+00 0.000000e+00 0
0.000000e+00 0.000000e+00 0
0.000000e+00 0.000000e+00 0
0.000000e+00 0.000000e+00 0
0.000000e+00 0.000000e+00 0
0.000000e+00 0.000000e+00 0
0.000000e+00 0.000000e+00 0
0.000000e+00 0.000000e+00 0
0.000000e+00 0.000000e+00 0
0.000000e+00 0.000000e+00 0
0.000000e+00 0.000000e+00 0
0.000000e+00 0.000000e+00 0
0.000000e+00 0.000000e+00 0
0.000000e+00 0.000000e+00 0
0.000000e+00 0.000000e+00 0
0.000000e+00 0.000000e+00 0
0.000000e+00 0.000000e+00 0
0.000000e+00 0.000000e+00 0
0.000000e+00 0.000000e+00 0
0.000000e+00 0.000000e+00 0
0.000000e+00 0.000000e+00 0
0.000000e+00 0.000000e+00 0
0.000000e+00 0.000000e+00 0
0.000000e+00 0.000000e+00 0
0.000000e+00 0.000000e+00 0
0.000000e+00 0.000000e+00 0
0.000000e+00 0.000000e+00 0
0.000000e+00 0.000000e+00 0
0.000000e+00 0.000000e+00 0
0.000000e+00 0.000000e+00 0
0.000000e+00 0.000000e+00 0
0.000000e+00 0.000000e+00 0
0.000000e+00 0.000000e+00 0
0.000000e+00 0.000000e+00 0
-6.274766e+01 0.000000e+00 0
0.000000e+00 0.000000e+00 0
0.000000e+00 0.000000e+00 0
7.218653e+01 -1.716475e+01 0
1.173425e+02 -2.440407e+01 0
1.296346e+02 -6.398424e+00 0
1.314719e+02 4.364470e+00 0
1.245379e+02 7.453241e+00 0
1.108612e+02 2.360758e+01 0
6.733822e+01 1.967790e+01 0
0.000000e+00 0.000000e+00 0
0.000000e+00 0.000000e+00 0
0.000000e+00 0.000000e+00 0
0.000000e+00 0.000000e+00 0
0.000000e+00 0.000000e+00 0
0.000000e+00 0.000000e+00 0
0.000000e+00 0.000000e+00 0
0.000000e+00 0.000000e+00 0
0.000000e+00 0.000000e+00 0
0.000000e+00 0.000000e+00 0
0.000000e+00 0.000000e+00 0
0.000000e+00 0.000000e+00 0
0.000000e+00 0.000000e+00 0
0.000000e+00 0.000000e+00 0
0.000000e+00 0.000000e+00 0
0.000000e+00 0.000000e+00 0
0.000000e+00 0.000000e+00 0
0.000000e+00 0.000000e+00 0
0.000000e+00 0.000000e+00 0
0.000000e+00 0.000000e+00 0
0.000000e+00 0.000000e+00 0
0.000000e+00 0.000000e+00 0
0.000000e+00 0.000000e+00 0
0.000000e+00 0.000000e+00 0
0.000000e+00 0.000000e+00 0
0.000000e+00 0.000000e+00 0
0.000000e+00 0.000000e+00 0
0.000000e+00 0.000000e+00 0
0.000000e+00 0.000000e+00 0
0.000000e+00 0.000000e+00 0
0.000000e+00 0.000000e+00 0
0.000000e+00 0.000000e+00 0
0.000000e+00 0.000000e+00 0
0.000000e+00 0.000000e+00 0
0.000000e+00 0.000000e+00 0
0.000000e+00 0.000000e+00 0
0.000000e+00 0.000000e+00 0
0.000000e+00 0.000000e+00 0
0.000000e+00 0.000000e+00 0
0.000000e+00 0.000000e+00 0
0.000000e+00 0.000000e+00 0
0.000000e+00 0.000000e+00 0
0.000000e+00 0.000000e+00 0
0.000000e+00 0.000000e+00 0
0.000000e+00 0.000000e+00 0
0.000000e+00 0.000000e+00 0
0.000000e+00 0.000000e+00 0
0.000000e+00 0.000000e+00 0
0.000000e+00 0.000000e+00 0
0.000000e+00 0.000000e+00 0
0.000000e+00 0.000000e+00 0
0.000000e+00 0.000000e+00 0
0.000000e+00 0.000000e+00 0
0.000000e+00 0.000000e+00 0
0.000000e+00 0.000000e+00 0
0.000000e+00 0.000000e+00 0
0.000000e+00 0.000000e+00 0
-5.000090e+01 0.000000e+00 0
0.000000e+00 0.000000e+00 0
1.020205e-14 0.000000e+00 0
8.031049e+01 -3.289852e+01 0
1.436368e+02 -6.536299e+01 0
1.582213e+02 -5.592302e+01 0
1.667102e+02 -3.487969e+01 0
1.692656e+02 -1.210970e+01 0
1.648016e+02 7.626158e+00 0
1.552595e+02 2.354923e+01 0
1.407794e+02 3.729588e+01 0
1.377721e+02 4.539922e+01 0
1.382853e+02 6.490535e+01 0
6.559215e+01 4.156752e+01 0
0.000000e+00 0.000000e+00 0
-7.161783e+01 0.000000e+00 0
0.000000e+00 0.000000e+00 0
0.000000e+00 0.000000e+00 0
0.000000e+00 0.000000e+00 0
0.000000e+00 0.000000e+00 0
0.000000e+00 0.000000e+00 0
0.000000e+00 0.000000e+00 0
0.000000e+00 0.000000e+00 0
0.000000e+00 0.000000e+00 0
0.000000e+00 0.000000e+00 0
0.000000e+00 0.000000e+00 0
0.000000e+00 0.000000e+00 0
0.000000e+00 0.000000e+00 0
0.000000e+00 0.000000e+00 0
0.000000e+00 0.000000e+00 0
0.000000e+00 0.000000e+00 0
0.000000e+00 0.000000e+00 0
0.000000e+00 0.000000e+00 0
0.000000e+00 0.000000e+00 0
0.000000e+00 0.000000e+00 0
0.000000e+00 0.000000e+00 0
0.000000e+00 0.000000e+00 0
0.000000e+00 0.000000e+00 0
0.000000e+00 0.000000e+00 0
0.000000e+00 0.000000e+00 0
0.000000e+00 0.000000e+00 0
0.000000e+00 0.000000e+00 0
0.000000e+00 0.000000e+00 0
0.000000e+00 0.000000e+00 0
0.000000e+00 0.000000e+00 0
0.000000e+00 0.000000e+00 0
0.000000e+00 0.000000e+00 0
0.000000e+00 0.000000e+00 0
0.000000e+00 0.000000e+00 0
0.000000e+00 0.000000e+00 0
0.000000e+00 0.000000e+00 0
0.000000e+00 0.000000e+00 0
0.000000e+00 0.000000e+00 0
0.000000e+00 0.000000e+00 0
0.000000e+00 0.000000e+00 0
0.000000e+00 0.000000e+00 0
0.000000e+00 0.000000e+00 0
0.000000e+00 0.000000e+00 0
0.000000e+00 0.000000e+00 0
0.000000e+00 0.000000e+00 0
0.000000e+00 0.000000e+00 0
0.000000e+00 0.000000e+00 0
0.000000e+00 0.000000e+00 0
0.000000e+00 0.000000e+00 0
0.000000e+00 0.000000e+00 0
0.000000e+00 0.000000e+00 0
0.000000e+00 0.000000e+00 0
0.000000e+00 0.000000e+00 0
0.000000e+00 -7.615228e-15 0
-2.040410e-14 -1.701159e-14 0
6.294445e+01 -3.800358e+01 0
1.249850e+02 -7.973504e+01 0
1.443998e+02 -7.881375e+01 0
1.488526e+02 -7.073526e+01 0
1.527878e+02 -5.903118e+01 0
1.526758e+02 -3.473974e+01 0
1.472881e+02 -3.436675e+00 0
1.412809e+02 1.974460e+01 0
1.370327e+02 3.311375e+01 0
1.303948e+02 4.255117e+01 0
1.276425e+02 4.649219e+01 0
1.290478e+02 7.036206e+01 0
1.303348e+02 1.034784e+02 0
6.912811e+01 5.635135e+01 0
-4.080820e-14 2.000447e-14 0
0.000000e+00 1.069374e-14 0
0.000000e+00 0.000000e+00 0
0.000000e+00 0.000000e+00 0
0.000000e+00 0.000000e+00 0
0.000000e+00 0.000000e+00 0
0.000000e+00 0.000000e+00 0
0.000000e+00 0.000000e+00 0
0.000000e+00 0.000000e+00 0
0.000000e+00 0.000000e+00 0
0.000000e+00 0.000000e+00 0
0.000000e+00 0.000000e+00 0
0.000000e+00 0.000000e+00 0
0.000000e+00 0.000000e+00 0
0.000000e+00 0.000000e+00 0
0.000000e+00 0.000000e+00 0
0.000000e+00 0.000000e+00 0
0.000000e+00 0.000000e+00 0
0.000000e+00 0.000000e+00 0
0.000000e+00 0.000000e+00 0
0.000000e+00 0.000000e+00 0
0.000000e+00 0.000000e+00 0
0.000000e+00 0.000000e+00 0
0.000000e+00 0.000000e+00 0
0.000000e+00 0.000000e+00 0
0.000000e+00 0.000000e+00 0
0.000000e+00 0.000000e+00 0
0.000000e+00 0.000000e+00 0
0.000000e+00 0.000000e+00 0
0.000000e+00 0.000000e+00 0
0.000000e+00 0.000000e+00 0
0.000000e+00 0.000000e+00 0
0.000000e+00 0.000000e+00 0
0.000000e+00 0.000000e+00 0
0.000000e+00 0.000000e+00 0
0.000000e+00 0.000000e+00 0
0.000000e+00 0.000000e+00 0
0.000000e+00 0.000000e+00 0
0.000000e+00 0.000000e+00 0
0.000000e+00 0.000000e+00 0
0.000000e+00 0.000000e+00 0
0.000000e+00 0.000000e+00 0
0.000000e+00 0.000000e+00 0
0.000000e+00 0.000000e+00 0
0.000000e+00 0.000000e+00 0
0.000000e+00 0.000000e+00 0
0.000000e+00 0.000000e+00 0
0.000000e+00 0.000000e+00 0
0.000000e+00 0.000000e+00 0
0.000000e+00 0.000000e+00 0
0.000000e+00 0.000000e+00 0
-5.355432e+01 0.000000e+00 0
0.000000e+00 0.000000e+00 0
4.301064e+01 -2.900457e+01 0
9.666860e+01 -6.479303e+01 0
1.079566e+02 -7.281176e+01 0
1.048546e+02 -8.040272e+01 0
1.094441e+02 -8.034390e+01 0
1.102194e+02 -7.296441e+01 0
1.168581e+02 -5.883936e+01 0
1.209206e+02 -2.822592e+01 0
1.122931e+02 5.932544e-01 0
1.185485e+02 1.915330e+01 0
1.324884e+02 3.571737e+01 0
1.517548e+02 4.792017e+01 0
1.433187e+02 4.775599e+01 0
1.388459e+02 6.310680e+01 0
1.400404e+02 9.281239e+01 0
1.499101e+02 8.754755e+01 0
1.465410e+02 7.619220e+01 0
6.979441e+01 4.072986e+01 0
0.000000e+00 0.000000e+00 0
-9.096227e+01 0.000000e+00 0
-8.070446e+01 0.000000e+00 0
0.000000e+00 0.000000e+00 0
0.000000e+00 0.000000e+00 0
0.000000e+00 0.000000e+00 0
0.000000e+00 0.000000e+00 0
0.000000e+00 0.000000e+00 0
0.000000e+00 0.000000e+00 0
0.000000e+00 0.000000e+00 0
0.000000e+00 0.000000e+00 0
0.000000e+00 0.000000e+00 0
0.000000e+00 0.000000e+00 0
0.000000e+00 0.000000e+00 0
0.000000e+00 0.000000e+00 0
0.000000e+00 0.000000e+00 0
0.000000e+00 0.000000e+00 0
0.000000e+00 0.000000e+00 0
0.000000e+00 0.000000e+00 0
0.000000e+00 0.000000e+00 0
0.000000e+00 0.000000e+00 0
0.000000e+00 0.000000e+00 0
0.000000e+00 0.000000e+00 0
0.000000e+00 0.000000e+00 0
0.000000e+00 0.000000e+00 0
0.000000e+00 0.000000e+00 0
0.000000e+00 0.000000e+00 0
0.000000e+00 0.000000e+00 0
0.000000e+00 0.000000e+00 0
0.000000e+00 0.000000e+00 0
0.000000e+00 0.000000e+00 0
0.000000e+00 0.000000e+00 0
0.000000e+00 0.000000e+00 0
0.000000e+00 0.000000e+00 0
0.000000e+00 0.000000e+00 0
0.000000e+00 0.000000e+00 0
0.000000e+00 0.000000e+00 0
0.000000e+00 0.000000e+00 0
0.000000e+00 0.000000e+00 0
0.000000e+00 0.000000e+00 0
0.000000e+00 0.000000e+00 0
0.000000e+00 0.000000e+00 0
0.000000e+00 0.000000e+00 0
0.000000e+00 0.000000e+00 0
0.000000e+00 0.000000e+00 0
0.000000e+00 0.000000e+00 0
0.000000e+00 0.000000e+00 0
0.000000e+00 0.000000e+00 0
0.000000e+00 0.000000e+00 0
-6.121230e-14 0.000000e+00 0
6.322712e+01 -3.504577e+01 0
1.016479e+02 -6.755181e+01 0
1.068423e+02 -6.634023e+01 0
1.162932e+02 -6.814395e+01 0
1.163649e+02 -8.024646e+01 0
1.145848e+02 -8.330805e+01 0
1.144950e+02 -7.733569e+01 0
5.010501e+01 -3.996433e+01 0
6.121230e-14 0.000000e+00 0
6.424208e-14 0.000000e+00 0
6.121230e-14 0.000000e+00 0
7.141435e-14 0.000000e+00 0
1.020205e-13 0.000000e+00 0
8.611000e+01 2.831111e+01 0
1.423521e+02 7.468949e+01 0
1.583695e+02 9.306767e+01 0
1.685637e+02 8.840163e+01 0
1.570666e+02 8.794067e+01 0
1.496260e+02 1.051617e+02 0
8.179126e+01 5.893332e+01 0
-9.944022e-14 0.000000e+00 0
-9.181844e-14 0.000000e+00 0
-7.862485e-13 0.000000e+00 0
-9.112735e+01 0.000000e+00 0
0.000000e+00 0.000000e+00 0
0.000000e+00 0.000000e+00 0
0.000000e+00 0.000000e+00 0
0.000000e+00 0.000000e+00 0
0.000000e+00 0.000000e+00 0
0.000000e+00 0.000000e+00 0
0.000000e+00 0.000000e+00 0
0.000000e+00 0.000000e+00 0
0.000000e+00 0.000000e+00 0
0.000000e+00 0.000000e+00 0
0.000000e+00 0.000000e+00 0
0.000000e+00 0.000000e+00 0
0.000000e+00 0.000000e+00 0
0.000000e+00 0.000000e+00 0
0.000000e+00 0.000000e+00 0
0.000000e+00 0.000000e+00 0
0.000000e+00 0.000000e+00 0
0.000000e+00 0.000000e+00 0
0.000000e+00 0.000000e+00 0
0.000000e+00 0.000000e+00 0
0.000000e+00 0.000000e+00 0
0.000000e+00 0.000000e+00 0
0.000000e+00 0.000000e+00 0
0.000000e+00 0.000000e+00 0
0.000000e+00 0.000000e+00 0
0.000000e+00 0.000000e+00 0
0.000000e+00 0.000000e+00 0
0.000000e+00 0.000000e+00 0
0.000000e+00 0.000000e+00 0
0.000000e+00 0.000000e+00 0
0.000000e+00 0.000000e+00 0
0.000000e+00 0.000000e+00 0
0.000000e+00 0.000000e+00 0
0.000000e+00 0.000000e+00 0
0.000000e+00 0.000000e+00 0
0.000000e+00 0.000000e+00 0
0.000000e+00 0.000000e+00 0
0.000000e+00 0.000000e+00 0
0.000000e+00 0.000000e+00 0
0.000000e+00 0.000000e+00 0
0.000000e+00 0.000000e+00 0
-6.010264e+01 0.000000e+00 0
0.000000e+00 0.000000e+00 0
5.081600e+01 -3.387460e+01 0
1.048444e+02 -6.845924e+01 0
1.134635e+02 -6.466313e+01 0
1.103996e+02 -6.390935e+01 0
1.169053e+02 -7.881655e+01 0
1.353782e+02 -8.157429e+01 0
1.405411e+02 -7.763176e+01 0
6.922999e+01 -5.104317e+01 0
-1.428287e-13 -1.000000e+01 0
0.000000e+00 0.000000e+00 0
-5.639422e+01 0.000000e+00 0
-8.375898e+00 0.000000e+00 0
-1.361090e+01 0.000000e+00 0
-3.271212e+01 0.000000e+00 0
-9.271982e+01 0.000000e+00 0
0.000000e+00 0.000000e+00 0
-1.326266e-13 -1.000000e+01 0
8.307173e+01 3.208731e+01 0
1.653720e+02 8.982130e+01 0
1.745046e+02 9.656573e+01 0
1.787145e+02 1.059790e+02 0
1.890402e+02 9.184633e+01 0
1.968043e+02 4.609491e+01 0
1.721812e+02 5.908583e+01 0
9.589932e+01 4.768999e+01 0
1.938389e-13 0.000000e+00 0
0.000000e+00 0.000000e+00 0
0.000000e+00 0.000000e+00 0
0.000000e+00 0.000000e+00 0
0.000000e+00 0.000000e+00 0
0.000000e+00 0.000000e+00 0
0.000000e+00 0.000000e+00 0
0.000000e+00 0.000000e+00 0
0.000000e+00 0.000000e+00 0
0.000000e+00 0.000000e+00 0
0.000000e+00 0.000000e+00 0
0.000000e+00 0.000000e+00 0
0.000000e+00 0.000000e+00 0
0.000000e+00 0.000000e+00 0
0.000000e+00 0.000000e+00 0
0.000000e+00 0.000000e+00 0
0.000000e+00 0.000000e+00 0
0.000000e+00 0.000000e+00 0
0.000000e+00 0.000000e+00 0
0.000000e+00 0.000000e+00 0
0.000000e+00 0.000000e+00 0
0.000000e+00 0.000000e+00 0
0.000000e+00 0.000000e+00 0
0.000000e+00 0.000000e+00 0
0.000000e+00 0.000000e+00 0
0.000000e+00 0.000000e+00 0
0.000000e+00 0.000000e+00 0
0.000000e+00 0.000000e+00 0
0.000000e+00 0.000000e+00 0
0.000000e+00 0.000000e+00 0
0.000000e+00 0.000000e+00 0
0.000000e+00 0.000000e+00 0
0.000000e+00 0.000000e+00 0
0.000000e+00 0.000000e+00 0
0.000000e+00 0.000000e+00 0
0.000000e+00 0.000000e+00 0
0.000000e+00 0.000000e+00 0
0.000000e+00 0.000000e+00 0
0.000000e+00 0.000000e+00 0
0.000000e+00 0.000000e+00 0
0.000000e+00 0.000000e+00 0
0.000000e+00 0.000000e+00 0
0.000000e+00 0.000000e+00 0
7.666100e+01 -4.212740e+01 0
1.271712e+02 -7.623596e+01 0
1.220721e+02 -6.735776e+01 0
1.124503e+02 -6.464121e+01 0
1.083787e+02 -7.007110e+01 0
1.074081e+02 -9.097561e+01 0
6.409715e+01 -6.229651e+01 0
2.754553e-13 -1.000000e+01 0
0.000000e+00 -2.000000e+01 0
-6.849697e+01 -2.000000e+01 0
6.286928e+01 0.000000e+00 0
0.000000e+00 0.000000e+00 0
4.235230e-16 0.000000e+00 0
0.000000e+00 0.000000e+00 0
0.000000e+00 0.000000e+00 0
0.000000e+00 0.000000e+00 0
4.091151e+01 0.000000e+00 0
-6.178335e+01 -2.000000e+01 0
0.000000e+00 -2.000000e+01 0
0.000000e+00 -1.000000e+01 0
9.236113e+01 3.236150e+01 0
1.609065e+02 9.114234e+01 0
1.749459e+02 8.514698e+01 0
1.772189e+02 6.273471e+01 0
1.658497e+02 6.973516e+01 0
1.877015e+02 8.328726e+01 0
1.849935e+02 1.011363e+02 0
8.111618e+01 6.121558e+01 0
0.000000e+00 0.000000e+00 0
0.000000e+00 0.000000e+00 0
0.000000e+00 0.000000e+00 0
0.000000e+00 0.000000e+00 0
0.000000e+00 0.000000e+00 0
0.000000e+00 0.000000e+00 0
0.000000e+00 0.000000e+00 0
0.000000e+00 0.000000e+00 0
0.000000e+00 0.000000e+00 0
0.000000e+00 0.000000e+00 0
0.000000e+00 0.000000e+00 0
0.000000e+00 0.000000e+00 0
0.000000e+00 0.000000e+00 0
0.000000e+00 0.000000e+00 0
0.000000e+00 0.000000e+00 0
0.000000e+00 0.000000e+00 0
0.000000e+00 0.000000e+00 0
0.000000e+00 0.000000e+00 0
0.000000e+00 0.000000e+00 0
0.000000e+00 0.000000e+00 0
0.000000e+00 0.000000e+00 0
0.000000e+00 0.000000e+00 0
0.000000e+00 0.000000e+00 0
0.000000e+00 0.000000e+00 0
0.000000e+00 0.000000e+00 0
0.000000e+00 0.000000e+00 0
0.000000e+00 0.000000e+00 0
0.000000e+00 0.000000e+00 0
0.000000e+00 0.000000e+00 0
0.000000e+00 0.000000e+00 0
0.000000e+00 0.000000e+00 0
0.000000e+00 0.000000e+00 0
0.000000e+00 0.000000e+00 0
0.000000e+00 0.000000e+00 0
0.000000e+00 0.000000e+00 0
0.000000e+00 0.000000e+00 0
7.581202e-14 0.000000e+00 0
-3.514689e+01 0.000000e+00 0
-7.581202e-14 0.000000e+00 0
4.760212e+01 -4.106837e+01 0
1.162116e+02 -8.254103e+01 0
1.318229e+02 -8.303397e+01 0
1.182248e+02 -6.969396e+01 0
1.062135e+02 -5.232988e+01 0
1.057985e+02 -4.958736e+01 0
1.090970e+02 -5.771641e+01 0
5.067735e+01 -4.232628e+01 0
0.000000e+00 -2.000000e+01 0
-6.679351e+01 -1.000000e+01 0
6.533192e+01 0.000000e+00 0
0.000000e+00 0.000000e+00 0
-1.326266e-13 0.000000e+00 0
-3.856242e+01 6.474717e+00 0
-9.466284e+01 8.403271e+00 0
-1.008011e+02 -3.165410e+00 0
-8.851432e+01 -1.091494e+01 0
-3.643509e+01 -5.820973e+00 0
-8.671742e-14 0.000000e+00 0
0.000000e+00 0.000000e+00 0
-6.694506e-13 0.000000e+00 0
-7.759030e+01 -1.000000e+01 0
0.000000e+00 -2.000000e+01 0
6.202361e+01 3.317843e+01 0
1.277671e+02 7.598689e+01 0
1.347119e+02 5.631906e+01 0
1.394330e+02 4.919462e+01 0
1.619168e+02 6.369827e+01 0
1.704416e+02 1.125345e+02 0
1.582798e+02 1.518743e+02 0
7.234587e+01 7.735408e+01 0
0.000000e+00 0.000000e+00 0
-7.641727e+01 0.000000e+00 0
0.000000e+00 0.000000e+00 0
0.000000e+00 0.000000e+00 0
0.000000e+00 0.000000e+00 0
0.000000e+00 0.000000e+00 0
0.000000e+00 0.000000e+00 0
0.000000e+00 0.000000e+00 0
0.000000e+00 0.000000e+00 0
0.000000e+00 0.000000e+00 0
0.000000e+00 0.000000e+00 0
0.000000e+00 0.000000e+00 0
0.000000e+00 0.000000e+00 0
0.000000e+00 0.000000e+00 0
0.000000e+00 0.000000e+00 0
0.000000e+00 0.000000e+00 0
0.000000e+00 0.000000e+00 0
0.000000e+00 0.000000e+00 0
0.000000e+00 0.000000e+00 0
0.000000e+00 0.000000e+00 0
0.000000e+00 0.000000e+00 0
0.000000e+00 0.000000e+00 0
0.000000e+00 0.000000e+00 0
0.000000e+00 0.000000e+00 0
0.000000e+00 0.000000e+00 0
0.000000e+00 0.000000e+00 0
0.000000e+00 0.000000e+00 0
0.000000e+00 0.000000e+00 0
0.000000e+00 0.000000e+00 0
0.000000e+00 0.000000e+00 0
0.000000e+00 0.000000e+00 0
0.000000e+00 0.000000e+00 0
0.000000e+00 0.000000e+00 0
0.000000e+00 0.000000e+00 0
-3.128986e+01 0.000000e+00 0
-1.631023e-28 0.000000e+00 0
7.651537e-14 0.000000e+00 0
4.371318e+01 -4.368467e+01 0
8.346493e+01 -9.323846e+01 0
8.729803e+01 -8.980281e+01 0
8.692903e+01 -6.790824e+01 0
7.558768e+01 -4.892799e+01 0
7.317475e+01 -5.358609e+01 0
4.358463e+01 -4.231733e+01 0
-1.122225e-13 -1.000000e+01 0
0.000000e+00 -2.000000e+01 0
5.533681e+01 -2.000000e+01 0
2.387235e-13 0.000000e+00 0
-1.428287e-13 0.000000e+00 0
-2.482086e+01 4.413239e+00 0
-1.138547e+02 1.796987e+01 0
-9.984796e+01 3.375406e+01 0
-1.109371e+02 2.787543e+01 0
-1.248180e+02 -3.528710e+00 0
-1.084520e+02 -3.135556e+01 0
-8.411223e+01 -4.464315e+01 0
-8.440667e+01 -2.975317e+01 0
-3.055329e+01 -5.258867e+00 0
4.643991e-13 0.000000e+00 0
5.382453e+01 0.000000e+00 0
0.000000e+00 -1.000000e+01 0
5.182863e-13 -2.000000e+01 0
6.007014e+01 1.967643e+01 0
1.228885e+02 5.163247e+01 0
1.237665e+02 4.266341e+01 0
1.179782e+02 5.229766e+01 0
1.237470e+02 1.057146e+02 0
1.403475e+02 1.566309e+02 0
1.443231e+02 1.517306e+02 0
7.864098e+01 6.922408e+01 0
1.632328e-13 0.000000e+00 0
0.000000e+00 0.000000e+00 0
0.000000e+00 0.000000e+00 0
0.000000e+00 0.000000e+00 0
0.000000e+00 0.000000e+00 0
0.000000e+00 0.000000e+00 0
0.000000e+00 0.000000e+00 0
0.000000e+00 0.000000e+00 0
0.000000e+00 0.000000e+00 0
0.000000e+00 0.000000e+00 0
0.000000e+00 0.000000e+00 0
0.000000e+00 0.000000e+00 0
0.000000e+00 0.000000e+00 0
0.000000e+00 0.000000e+00 0
0.000000e+00 0.000000e+00 0
0.000000e+00 0.000000e+00 0
0.000000e+00 0.000000e+00 0
0.000000e+00 0.000000e+00 0
0.000000e+00 0.000000e+00 0
0.000000e+00 0.000000e+00 0
0.000000e+00 0.000000e+00 0
0.000000e+00 0.000000e+00 0
0.000000e+00 0.000000e+00 0
0.000000e+00 0.000000e+00 0
0.000000e+00 0.000000e+00 0
0.000000e+00 0.000000e+00 0
0.000000e+00 0.000000e+00 0
0.000000e+00 0.000000e+00 0
0.000000e+00 0.000000e+00 0
0.000000e+00 0.000000e+00 0
0.000000e+00 0.000000e+00 0
0.000000e+00 0.000000e+00 0