<?xml version="1.0"?>
<VTKFile type="StructuredGrid">
<StructuredGrid WholeExtent="0 68 0 35 0 0 ">
<Piece Extent="0 68 0 35 0 0 ">
<Points>
<DataArray type="Float64" format="ascii" NumberOfComponents="3">
0.000000e+00 0.000000e+00 0.000000e+00
1.029412e-01 0.000000e+00 0.000000e+00
2.058824e-01 0.000000e+00 0.000000e+00
3.088235e-01 0.000000e+00 0.000000e+00
4.117647e-01 0.000000e+00 0.000000e+00
5.147059e-01 0.000000e+00 0.000000e+00
6.176471e-01 0.000000e+00 0.000000e+00
7.205882e-01 0.000000e+00 0.000000e+00
8.235294e-01 0.000000e+00 0.000000e+00
9.264706e-01 0.000000e+00 0.000000e+00
1.029412e+00 0.000000e+00 0.000000e+00
1.132353e+00 0.000000e+00 0.000000e+00
1.235294e+00 0.000000e+00 0.000000e+00
1.338235e+00 0.000000e+00 0.000000e+00
1.441176e+00 0.000000e+00 0.000000e+00
1.544118e+00 0.000000e+00 0.000000e+00
1.647059e+00 0.000000e+00 0.000000e+00
1.750000e+00 0.000000e+00 0.000000e+00
1.852941e+00 0.000000e+00 0.000000e+00
1.955882e+00 0.000000e+00 0.000000e+00
2.058824e+00 0.000000e+00 0.000000e+00
2.161765e+00 0.000000e+00 0.000000e+00
2.264706e+00 0.000000e+00 0.000000e+00
2.367647e+00 0.000000e+00 0.000000e+00
2.470588e+00 0.000000e+00 0.000000e+00
2.573529e+00 0.000000e+00 0.000000e+00
2.676471e+00 0.000000e+00 0.000000e+00
2.779412e+00 0.000000e+00 0.000000e+00
2.882353e+00 0.000000e+00 0.000000e+00
2.985294e+00 0.000000e+00 0.000000e+00
3.088235e+00 0.000000e+00 0.000000e+00
3.191176e+00 0.000000e+00 0.000000e+00
3.294118e+00 0.000000e+00 0.000000e+00
3.397059e+00 0.000000e+00 0.000000e+00
3.500000e+00 0.000000e+00 0.000000e+00
3.602941e+00 0.000000e+00 0.000000e+00
3.705882e+00 0.000000e+00 0.000000e+00
3.808824e+00 0.000000e+00 0.000000e+00
3.911765e+00 0.000000e+00 0.000000e+00
4.014706e+00 0.000000e+00 0.000000e+00
4.117647e+00 0.000000e+00 0.000000e+00
4.220588e+00 0.000000e+00 0.000000e+00
4.323529e+00 0.000000e+00 0.000000e+00
4.426471e+00 0.000000e+00 0.000000e+00
4.529412e+00 0.000000e+00 0.000000e+00
4.632353e+00 0.000000e+00 0.000000e+00
4.735294e+00 0.000000e+00 0.000000e+00
4.838235e+00 0.000000e+00 0.000000e+00
4.941176e+00 0.000000e+00 0.000000e+00
5.044118e+00 0.000000e+00 0.000000e+00
5.147059e+00 0.000000e+00 0.000000e+00
5.250000e+00 0.000000e+00 0.000000e+00
5.352941e+00 0.000000e+00 0.000000e+00
5.455882e+00 0.000000e+00 0.000000e+00
5.558824e+00 0.000000e+00 0.000000e+00
5.661765e+00 0.000000e+00 0.000000e+00
5.764706e+00 0.000000e+00 0.000000e+00
5.867647e+00 0.000000e+00 0.000000e+00
5.970588e+00 0.000000e+00 0.000000e+00
6.073529e+00 0.000000e+00 0.000000e+00
6.176471e+00 0.000000e+00 0.000000e+00
6.279412e+00 0.000000e+00 0.000000e+00
6.382353e+00 0.000000e+00 0.000000e+00
6.485294e+00 0.000000e+00 0.000000e+00
6.588235e+00 0.000000e+00 0.000000e+00
6.691176e+00 0.000000e+00 0.000000e+00
6.794118e+00 0.000000e+00 0.000000e+00
6.897059e+00 0.000000e+00 0.000000e+00
7.000000e+00 0.000000e+00 0.000000e+00
0.000000e+00 1.057143e-01 0.000000e+00
1.029412e-01 1.057143e-01 0.000000e+00
2.058824e-01 1.057143e-01 0.000000e+00
3.088235e-01 1.057143e-01 0.000000e+00
4.117647e-01 1.057143e-01 0.000000e+00
5.147059e-01 1.057143e-01 0.000000e+00
6.176471e-01 1.057143e-01 0.000000e+00
7.205882e-01 1.057143e-01 0.000000e+00
8.235294e-01 1.057143e-01 0.000000e+00
9.264706e-01 1.057143e-01 0.000000e+00
1.029412e+00 1.057143e-01 0.000000e+00
1.132353e+00 1.057143e-01 0.000000e+00
1.235294e+00 1.057143e-01 0.000000e+00
1.338235e+00 1.057143e-01 0.000000e+00
1.441176e+00 1.057143e-01 0.000000e+00
1.544118e+00 1.057143e-01 0.000000e+00
1.647059e+00 1.057143e-01 0.000000e+00
1.750000e+00 1.057143e-01 0.000000e+00
1.852941e+00 1.057143e-01 0.000000e+00
1.955882e+00 1.057143e-01 0.000000e+00
2.058824e+00 1.057143e-01 0.000000e+00
2.161765e+00 1.057143e-01 0.000000e+00
2.264706e+00 1.057143e-01 0.000000e+00
2.367647e+00 1.057143e-01 0.000000e+00
2.470588e+00 1.057143e-01 0.000000e+00
2.573529e+00 1.057143e-01 0.000000e+00
2.676471e+00 1.057143e-01 0.000000e+00
2.779412e+00 1.057143e-01 0.000000e+00
2.882353e+00 1.057143e-01 0.000000e+00
2.985294e+00 1.057143e-01 0.000000e+00
3.088235e+00 1.057143e-01 0.000000e+00
3.191176e+00 1.057143e-01 0.000000e+00
3.294118e+00 1.057143e-01 0.000000e+00
3.397059e+00 1.057143e-01 0.000000e+00
3.500000e+00 1.057143e-01 0.000000e+00
3.602941e+00 1.057143e-01 0.000000e+00
3.705882e+00 1.057143e-01 0.000000e+00
3.808824e+00 1.057143e-01 0.000000e+00
3.911765e+00 1.057143e-01 0.000000e+00
4.014706e+00 1.057143e-01 0.000000e+00
4.117647e+00 1.057143e-01 0.000000e+00
4.220588e+00 1.057143e-01 0.000000e+00
4.323529e+00 1.057143e-01 0.000000e+00
4.426471e+00 1.057143e-01 0.000000e+00
4.529412e+00 1.057143e-01 0.000000e+00
4.632353e+00 1.057143e-01 0.000000e+00
4.735294e+00 1.057143e-01 0.000000e+00
4.838235e+00 1.057143e-01 0.000000e+00
4.941176e+00 1.057143e-01 0.000000e+00
5.044118e+00 1.057143e-01 0.000000e+00
5.147059e+00 1.057143e-01 0.000000e+00
5.250000e+00 1.057143e-01 0.000000e+00
5.352941e+00 1.057143e-01 0.000000e+00
5.455882e+00 1.057143e-01 0.000000e+00
5.558824e+00 1.057143e-01 0.000000e+00
5.661765e+00 1.057143e-01 0.000000e+00
5.764706e+00 1.057143e-01 0.000000e+00
5.867647e+00 1.057143e-01 0.000000e+00
5.970588e+00 1.057143e-01 0.000000e+00
6.073529e+00 1.057143e-01 0.000000e+00
6.176471e+00 1.057143e-01 0.000000e+00
6.279412e+00 1.057143e-01 0.000000e+00
6.382353e+00 1.057143e-01 0.000000e+00
6.485294e+00 1.057143e-01 0.000000e+00
6.588235e+00 1.057143e-01 0.000000e+00
6.691176e+00 1.057143e-01 0.000000e+00
6.794118e+00 1.057143e-01 0.000000e+00
6.897059e+00 1.057143e-01 0.000000e+00
7.000000e+00 1.057143e-01 0.000000e+00
0.000000e+00 2.114286e-01 0.000000e+00
1.029412e-01 2.114286e-01 0.000000e+00
2.058824e-01 2.114286e-01 0.000000e+00
3.088235e-01 2.114286e-01 0.000000e+00
4.117647e-01 2.114286e-01 0.000000e+00
5.147059e-01 2.114286e-01 0.000000e+00
6.176471e-01 2.114286e-01 0.000000e+00
7.205882e-01 2.114286e-01 0.000000e+00
8.235294e-01 2.114286e-01 0.000000e+00
9.264706e-01 2.114286e-01 0.000000e+00
1.029412e+00 2.114286e-01 0.000000e+00
1.132353e+00 2.114286e-01 0.000000e+00
1.235294e+00 2.114286e-01 0.000000e+00
1.338235e+00 2.114286e-01 0.000000e+00
1.441176e+00 2.114286e-01 0.000000e+00
1.544118e+00 2.114286e-01 0.000000e+00
1.647059e+00 2.114286e-01 0.000000e+00
1.750000e+00 2.114286e-01 0.000000e+00
1.852941e+00 2.114286e-01 0.000000e+00
1.955882e+00 2.114286e-01 0.000000e+00
2.058824e+00 2.114286e-01 0.000000e+00
2.161765e+00 2.114286e-01 0.000000e+00
2.264706e+00 2.114286e-01 0.000000e+00
2.367647e+00 2.114286e-01 0.000000e+00
2.470588e+00 2.114286e-01 0.000000e+00
2.573529e+00 2.114286e-01 0.000000e+00
2.676471e+00 2.114286e-01 0.000000e+00
2.779412e+00 2.114286e-01 0.000000e+00
2.882353e+00 2.114286e-01 0.000000e+00
2.985294e+00 2.114286e-01 0.000000e+00
3.088235e+00 2.114286e-01 0.000000e+00
3.191176e+00 2.114286e-01 0.000000e+00
3.294118e+00 2.114286e-01 0.000000e+00
3.397059e+00 2.114286e-01 0.000000e+00
3.500000e+00 2.114286e-01 0.000000e+00
3.602941e+00 2.114286e-01 0.000000e+00
3.705882e+00 2.114286e-01 0.000000e+00
3.808824e+00 2.114286e-01 0.000000e+00
3.911765e+00 2.114286e-01 0.000000e+00
4.014706e+00 2.114286e-01 0.000000e+00
4.117647e+00 2.114286e-01 0.000000e+00
4.220588e+00 2.114286e-01 0.000000e+00
4.323529e+00 2.114286e-01 0.000000e+00
4.426471e+00 2.114286e-01 0.000000e+00
4.529412e+00 2.114286e-01 0.000000e+00
4.632353e+00 2.114286e-01 0.000000e+00
4.735294e+00 2.114286e-01 0.000000e+00
4.838235e+00 2.114286e-01 0.000000e+00
4.941176e+00 2.114286e-01 0.000000e+00
5.044118e+00 2.114286e-01 0.000000e+00
5.147059e+00 2.114286e-01 0.000000e+00
5.250000e+00 2.114286e-01 0.000000e+00
5.352941e+00 2.114286e-01 0.000000e+00
5.455882e+00 2.114286e-01 0.000000e+00
5.558824e+00 2.114286e-01 0.000000e+00
5.661765e+00 2.114286e-01 0.000000e+00
5.764706e+00 2.114286e-01 0.000000e+00
5.867647e+00 2.114286e-01 0.000000e+00
5.970588e+00 2.114286e-01 0.000000e+00
6.073529e+00 2.114286e-01 0.000000e+00
6.176471e+00 2.114286e-01 0.000000e+00
6.279412e+00 2.114286e-01 0.000000e+00
6.382353e+00 2.114286e-01 0.000000e+00
6.485294e+00 2.114286e-01 0.000000e+00
6.588235e+00 2.114286e-01 0.000000e+00
6.691176e+00 2.114286e-01 0.000000e+00
6.794118e+00 2.114286e-01 0.000000e+00
6.897059e+00 2.114286e-01 0.000000e+00
7.000000e+00 2.114286e-01 0.000000e+00
0.000000e+00 3.171429e-01 0.000000e+00
1.029412e-01 3.171429e-01 0.000000e+00
2.058824e-01 3.171429e-01 0.000000e+00
3.088235e-01 3.171429e-01 0.000000e+00
4.117647e-01 3.171429e-01 0.000000e+00
5.147059e-01 3.171429e-01 0.000000e+00
6.176471e-01 3.171429e-01 0.000000e+00
7.205882e-01 3.171429e-01 0.000000e+00
8.235294e-01 3.171429e-01 0.000000e+00
9.264706e-01 3.171429e-01 0.000000e+00
1.029412e+00 3.171429e-01 0.000000e+00
1.132353e+00 3.171429e-01 0.000000e+00
1.235294e+00 3.171429e-01 0.000000e+00
1.338235e+00 3.171429e-01 0.000000e+00
1.441176e+00 3.171429e-01 0.000000e+00
1.544118e+00 3.171429e-01 0.000000e+00
1.647059e+00 3.171429e-01 0.000000e+00
1.750000e+00 3.171429e-01 0.000000e+00
1.852941e+00 3.171429e-01 0.000000e+00
1.955882e+00 3.171429e-01 0.000000e+00
2.058824e+00 3.171429e-01 0.000000e+00
2.161765e+00 3.171429e-01 0.000000e+00
2.264706e+00 3.171429e-01 0.000000e+00
2.367647e+00 3.171429e-01 0.000000e+00
2.470588e+00 3.171429e-01 0.000000e+00
2.573529e+00 3.171429e-01 0.000000e+00
2.676471e+00 3.171429e-01 0.000000e+00
2.779412e+00 3.171429e-01 0.000000e+00
2.882353e+00 3.171429e-01 0.000000e+00
2.985294e+00 3.171429e-01 0.000000e+00
3.088235e+00 3.171429e-01 0.000000e+00
3.191176e+00 3.171429e-01 0.000000e+00
3.294118e+00 3.171429e-01 0.000000e+00
3.397059e+00 3.171429e-01 0.000000e+00
3.500000e+00 3.171429e-01 0.000000e+00
3.602941e+00 3.171429e-01 0.000000e+00
3.705882e+00 3.171429e-01 0.000000e+00
3.808824e+00 3.171429e-01 0.000000e+00
3.911765e+00 3.171429e-01 0.000000e+00
4.014706e+00 3.171429e-01 0.000000e+00
4.117647e+00 3.171429e-01 0.000000e+00
4.220588e+00 3.171429e-01 0.000000e+00
4.323529e+00 3.171429e-01 0.000000e+00
4.426471e+00 3.171429e-01 0.000000e+00
[...]
<PointData>
<DataArray Name="Velocity" type="Float64" format="ascii" NumberOfComponents="3">
0.000000e+00 0.000000e+00 0
0.000000e+00 0.000000e+00 0
0.000000e+00 0.000000e+00 0
0.000000e+00 0.000000e+00 0
0.000000e+00 0.000000e+00 0
0.000000e+00 0.000000e+00 0
0.000000e+00 0.000000e+00 0
0.000000e+00 0.000000e+00 0
0.000000e+00 0.000000e+00 0
0.000000e+00 0.000000e+00 0
0.000000e+00 0.000000e+00 0
0.000000e+00 0.000000e+00 0
0.000000e+00 0.000000e+00 0
0.000000e+00 0.000000e+00 0
0.000000e+00 0.000000e+00 0
0.000000e+00 0.000000e+00 0
0.000000e+00 0.000000e+00 0
0.000000e+00 0.000000e+00 0
0.000000e+00 0.000000e+00 0
0.000000e+00 0.000000e+00 0
0.000000e+00 0.000000e+00 0
0.000000e+00 0.000000e+00 0
0.000000e+00 0.000000e+00 0
0.000000e+00 0.000000e+00 0
0.000000e+00 0.000000e+00 0
0.000000e+00 0.000000e+00 0
0.000000e+00 0.000000e+00 0
0.000000e+00 0.000000e+00 0
0.000000e+00 0.000000e+00 0
0.000000e+00 0.000000e+00 0
0.000000e+00 0.000000e+00 0
0.000000e+00 0.000000e+00 0
-8.895350e+01 0.000000e+00 0
0.000000e+00 0.000000e+00 0
-4.824641e+01 0.000000e+00 0
9.659249e-15 0.000000e+00 0
0.000000e+00 0.000000e+00 0
0.000000e+00 0.000000e+00 0
0.000000e+00 0.000000e+00 0
0.000000e+00 0.000000e+00 0
-1.294669e+02 0.000000e+00 0
0.000000e+00 0.000000e+00 0
0.000000e+00 0.000000e+00 0
0.000000e+00 0.000000e+00 0
0.000000e+00 0.000000e+00 0
0.000000e+00 0.000000e+00 0
0.000000e+00 0.000000e+00 0
0.000000e+00 0.000000e+00 0
0.000000e+00 0.000000e+00 0
0.000000e+00 0.000000e+00 0
0.000000e+00 0.000000e+00 0
0.000000e+00 0.000000e+00 0
0.000000e+00 0.000000e+00 0
0.000000e+00 0.000000e+00 0
0.000000e+00 0.000000e+00 0
0.000000e+00 0.000000e+00 0
0.000000e+00 0.000000e+00 0
0.000000e+00 0.000000e+00 0
0.000000e+00 0.000000e+00 0
0.000000e+00 0.000000e+00 0
0.000000e+00 0.000000e+00 0
0.000000e+00 0.000000e+00 0
0.000000e+00 0.000000e+00 0
0.000000e+00 0.000000e+00 0
0.000000e+00 0.000000e+00 0
0.000000e+00 0.000000e+00 0
0.000000e+00 0.000000e+00 0
0.000000e+00 0.000000e+00 0
0.000000e+00 0.000000e+00 0
0.000000e+00 0.000000e+00 0
0.000000e+00 0.000000e+00 0
0.000000e+00 0.000000e+00 0
0.000000e+00 0.000000e+00 0
0.000000e+00 0.000000e+00 0
0.000000e+00 0.000000e+00 0
0.000000e+00 0.000000e+00 0
0.000000e+00 0.000000e+00 0
0.000000e+00 0.000000e+00 0
0.000000e+00 0.000000e+00 0
0.000000e+00 0.000000e+00 0
0.000000e+00 0.000000e+00 0
0.000000e+00 0.000000e+00 0
0.000000e+00 0.000000e+00 0
0.000000e+00 0.000000e+00 0
0.000000e+00 0.000000e+00 0
0.000000e+00 0.000000e+00 0
0.000000e+00 0.000000e+00 0
0.000000e+00 0.000000e+00 0
0.000000e+00 0.000000e+00 0
0.000000e+00 0.000000e+00 0
0.000000e+00 0.000000e+00 0
0.000000e+00 0.000000e+00 0
0.000000e+00 0.000000e+00 0
0.000000e+00 0.000000e+00 0
0.000000e+00 0.000000e+00 0
0.000000e+00 0.000000e+00 0
0.000000e+00 0.000000e+00 0
0.000000e+00 0.000000e+00 0
0.000000e+00 0.000000e+00 0
-1.125552e+02 0.000000e+00 0
0.000000e+00 0.000000e+00 0
0.000000e+00 0.000000e+00 0
1.978087e+02 0.000000e+00 0
2.334894e+02 -5.735115e+01 0
3.394958e+02 -9.386872e+01 0
3.646732e+02 -4.535062e+01 0
3.584461e+02 1.711644e+01 0
3.163542e+02 1.447240e+02 0
2.050600e+02 1.187745e+02 0
0.000000e+00 0.000000e+00 0
0.000000e+00 0.000000e+00 0
0.000000e+00 0.000000e+00 0
0.000000e+00 0.000000e+00 0
0.000000e+00 0.000000e+00 0
0.000000e+00 0.000000e+00 0
0.000000e+00 0.000000e+00 0
0.000000e+00 0.000000e+00 0
0.000000e+00 0.000000e+00 0
0.000000e+00 0.000000e+00 0
0.000000e+00 0.000000e+00 0
0.000000e+00 0.000000e+00 0
0.000000e+00 0.000000e+00 0
0.000000e+00 0.000000e+00 0
0.000000e+00 0.000000e+00 0
0.000000e+00 0.000000e+00 0
0.000000e+00 0.000000e+00 0
0.000000e+00 0.000000e+00 0
0.000000e+00 0.000000e+00 0
0.000000e+00 0.000000e+00 0
0.000000e+00 0.000000e+00 0
0.000000e+00 0.000000e+00 0
0.000000e+00 0.000000e+00 0
0.000000e+00 0.000000e+00 0
0.000000e+00 0.000000e+00 0
0.000000e+00 0.000000e+00 0
0.000000e+00 0.000000e+00 0
0.000000e+00 0.000000e+00 0
0.000000e+00 0.000000e+00 0
0.000000e+00 0.000000e+00 0
0.000000e+00 0.000000e+00 0
0.000000e+00 0.000000e+00 0
0.000000e+00 0.000000e+00 0
0.000000e+00 0.000000e+00 0
0.000000e+00 0.000000e+00 0
0.000000e+00 0.000000e+00 0
0.000000e+00 0.000000e+00 0
0.000000e+00 0.000000e+00 0
0.000000e+00 0.000000e+00 0
0.000000e+00 0.000000e+00 0
0.000000e+00 0.000000e+00 0
0.000000e+00 0.000000e+00 0
0.000000e+00 0.000000e+00 0
0.000000e+00 0.000000e+00 0
0.000000e+00 0.000000e+00 0
0.000000e+00 0.000000e+00 0
0.000000e+00 0.000000e+00 0
0.000000e+00 0.000000e+00 0
0.000000e+00 0.000000e+00 0
0.000000e+00 0.000000e+00 0
0.000000e+00 0.000000e+00 0
0.000000e+00 0.000000e+00 0
0.000000e+00 0.000000e+00 0
0.000000e+00 0.000000e+00 0
0.000000e+00 0.000000e+00 0
0.000000e+00 0.000000e+00 0
0.000000e+00 0.000000e+00 0
-9.608232e+01 0.000000e+00 0
0.000000e+00 0.000000e+00 0
2.040410e-14 0.000000e+00 0
2.370604e+02 -9.219640e+01 0
3.678651e+02 -1.980196e+02 0
5.029437e+02 -1.983012e+02 0
5.335379e+02 -1.517939e+02 0
5.151390e+02 -8.517154e+01 0
4.814749e+02 -1.946062e+01 0
4.519249e+02 4.962084e+01 0
4.316700e+02 1.499941e+02 0
4.576783e+02 1.915324e+02 0
3.508970e+02 2.160887e+02 0
1.956361e+02 1.313246e+02 0
0.000000e+00 0.000000e+00 0
-1.516065e+02 0.000000e+00 0
0.000000e+00 0.000000e+00 0
0.000000e+00 0.000000e+00 0
0.000000e+00 0.000000e+00 0
0.000000e+00 0.000000e+00 0
0.000000e+00 0.000000e+00 0
0.000000e+00 0.000000e+00 0
0.000000e+00 0.000000e+00 0
0.000000e+00 0.000000e+00 0
0.000000e+00 0.000000e+00 0
0.000000e+00 0.000000e+00 0
0.000000e+00 0.000000e+00 0
0.000000e+00 0.000000e+00 0
0.000000e+00 0.000000e+00 0
0.000000e+00 0.000000e+00 0
0.000000e+00 0.000000e+00 0
0.000000e+00 0.000000e+00 0
0.000000e+00 0.000000e+00 0
0.000000e+00 0.000000e+00 0
0.000000e+00 0.000000e+00 0
0.000000e+00 0.000000e+00 0
0.000000e+00 0.000000e+00 0
0.000000e+00 0.000000e+00 0
0.000000e+00 0.000000e+00 0
0.000000e+00 0.000000e+00 0
0.000000e+00 0.000000e+00 0
0.000000e+00 0.000000e+00 0
0.000000e+00 0.000000e+00 0
0.000000e+00 0.000000e+00 0
0.000000e+00 0.000000e+00 0
0.000000e+00 0.000000e+00 0
0.000000e+00 0.000000e+00 0
0.000000e+00 0.000000e+00 0
0.000000e+00 0.000000e+00 0
0.000000e+00 0.000000e+00 0
0.000000e+00 0.000000e+00 0
0.000000e+00 0.000000e+00 0
0.000000e+00 0.000000e+00 0
0.000000e+00 0.000000e+00 0
0.000000e+00 0.000000e+00 0
0.000000e+00 0.000000e+00 0
0.000000e+00 0.000000e+00 0
0.000000e+00 0.000000e+00 0
0.000000e+00 0.000000e+00 0
0.000000e+00 0.000000e+00 0
0.000000e+00 0.000000e+00 0
0.000000e+00 0.000000e+00 0
0.000000e+00 0.000000e+00 0
0.000000e+00 0.000000e+00 0
0.000000e+00 0.000000e+00 0
0.000000e+00 0.000000e+00 0
0.000000e+00 0.000000e+00 0
0.000000e+00 0.000000e+00 0
0.000000e+00 -2.706358e-14 0
-6.121230e-14 -6.630610e-14 0
2.416597e+02 -1.156229e+02 0
3.976770e+02 -2.426792e+02 0
5.516092e+02 -2.622313e+02 0
5.935946e+02 -2.679281e+02 0
6.275487e+02 -2.200075e+02 0
6.028753e+02 -1.257110e+02 0
5.651501e+02 -4.040313e+01 0
5.259930e+02 1.956639e+01 0
5.019564e+02 6.826307e+01 0
5.000742e+02 1.388157e+02 0
5.297494e+02 2.088581e+02 0
4.924177e+02 2.746060e+02 0
4.666344e+02 3.500003e+02 0
2.691737e+02 1.921868e+02 0
-8.161640e-14 3.425474e-14 0
0.000000e+00 0.000000e+00 0
0.000000e+00 0.000000e+00 0
0.000000e+00 0.000000e+00 0
0.000000e+00 0.000000e+00 0
0.000000e+00 0.000000e+00 0
0.000000e+00 0.000000e+00 0
0.000000e+00 0.000000e+00 0
0.000000e+00 0.000000e+00 0
0.000000e+00 0.000000e+00 0
0.000000e+00 0.000000e+00 0
0.000000e+00 0.000000e+00 0
0.000000e+00 0.000000e+00 0
0.000000e+00 0.000000e+00 0
0.000000e+00 0.000000e+00 0
0.000000e+00 0.000000e+00 0
0.000000e+00 0.000000e+00 0
0.000000e+00 0.000000e+00 0
0.000000e+00 0.000000e+00 0
0.000000e+00 0.000000e+00 0
0.000000e+00 0.000000e+00 0
0.000000e+00 0.000000e+00 0
0.000000e+00 0.000000e+00 0
0.000000e+00 0.000000e+00 0
0.000000e+00 0.000000e+00 0
0.000000e+00 0.000000e+00 0
0.000000e+00 0.000000e+00 0
0.000000e+00 0.000000e+00 0
0.000000e+00 0.000000e+00 0
0.000000e+00 0.000000e+00 0
0.000000e+00 0.000000e+00 0
0.000000e+00 0.000000e+00 0
0.000000e+00 0.000000e+00 0
0.000000e+00 0.000000e+00 0
0.000000e+00 0.000000e+00 0
0.000000e+00 0.000000e+00 0
0.000000e+00 0.000000e+00 0
0.000000e+00 0.000000e+00 0
0.000000e+00 0.000000e+00 0
0.000000e+00 0.000000e+00 0
0.000000e+00 0.000000e+00 0
0.000000e+00 0.000000e+00 0
0.000000e+00 0.000000e+00 0
0.000000e+00 0.000000e+00 0
0.000000e+00 0.000000e+00 0
0.000000e+00 0.000000e+00 0
0.000000e+00 0.000000e+00 0
0.000000e+00 0.000000e+00 0
0.000000e+00 0.000000e+00 0
0.000000e+00 0.000000e+00 0
0.000000e+00 0.000000e+00 0
-1.014389e+02 0.000000e+00 0
0.000000e+00 0.000000e+00 0
1.496938e+02 -1.030787e+02 0
3.287818e+02 -2.525439e+02 0
5.235222e+02 -3.097210e+02 0
5.757707e+02 -3.175318e+02 0
6.105977e+02 -2.925890e+02 0
5.819348e+02 -2.760048e+02 0
5.974041e+02 -2.078318e+02 0
5.188974e+02 -8.771433e+01 0
4.814497e+02 -6.218081e+00 0
4.795542e+02 4.543548e+01 0
5.005029e+02 7.623788e+01 0
5.460266e+02 1.214525e+02 0
6.287039e+02 1.993953e+02 0
2.709876e+02 2.809041e+02 0
6.331048e+02 3.518631e+02 0
6.297046e+02 3.245286e+02 0
4.525648e+02 1.304680e+02 0
2.462646e+02 0.000000e+00 0
0.000000e+00 0.000000e+00 0
-1.700894e+02 0.000000e+00 0
0.000000e+00 0.000000e+00 0
0.000000e+00 0.000000e+00 0
0.000000e+00 0.000000e+00 0
0.000000e+00 0.000000e+00 0
0.000000e+00 0.000000e+00 0
0.000000e+00 0.000000e+00 0
0.000000e+00 0.000000e+00 0
0.000000e+00 0.000000e+00 0
0.000000e+00 0.000000e+00 0
0.000000e+00 0.000000e+00 0
0.000000e+00 0.000000e+00 0
0.000000e+00 0.000000e+00 0
0.000000e+00 0.000000e+00 0
0.000000e+00 0.000000e+00 0
0.000000e+00 0.000000e+00 0
0.000000e+00 0.000000e+00 0
0.000000e+00 0.000000e+00 0
0.000000e+00 0.000000e+00 0
0.000000e+00 0.000000e+00 0
0.000000e+00 0.000000e+00 0
0.000000e+00 0.000000e+00 0
0.000000e+00 0.000000e+00 0
0.000000e+00 0.000000e+00 0
0.000000e+00 0.000000e+00 0
0.000000e+00 0.000000e+00 0
0.000000e+00 0.000000e+00 0
0.000000e+00 0.000000e+00 0
0.000000e+00 0.000000e+00 0
0.000000e+00 0.000000e+00 0
0.000000e+00 0.000000e+00 0
0.000000e+00 0.000000e+00 0
0.000000e+00 0.000000e+00 0
0.000000e+00 0.000000e+00 0
0.000000e+00 0.000000e+00 0
0.000000e+00 0.000000e+00 0
0.000000e+00 0.000000e+00 0
0.000000e+00 0.000000e+00 0
0.000000e+00 0.000000e+00 0
0.000000e+00 0.000000e+00 0
0.000000e+00 0.000000e+00 0
0.000000e+00 0.000000e+00 0
0.000000e+00 0.000000e+00 0
0.000000e+00 0.000000e+00 0
0.000000e+00 0.000000e+00 0
0.000000e+00 0.000000e+00 0
0.000000e+00 0.000000e+00 0
0.000000e+00 0.000000e+00 0
-1.014389e+02 0.000000e+00 0
2.525855e+02 -1.425834e+02 0
4.444529e+02 -3.309038e+02 0
5.320834e+02 -3.882731e+02 0
5.868532e+02 -3.692316e+02 0
5.554663e+02 -3.321003e+02 0
5.396971e+02 -2.685614e+02 0
4.188032e+02 -2.543791e+02 0
2.749904e+02 -1.486391e+02 0
2.040410e-13 0.000000e+00 0
2.122702e-13 0.000000e+00 0
2.448492e-13 0.000000e+00 0
2.448492e-13 0.000000e+00 0
3.264656e-13 0.000000e+00 0
3.515727e+02 0.000000e+00 0
0.000000e+00 1.514614e+02 0
6.400912e+02 3.471401e+02 0
6.861234e+02 3.873242e+02 0
6.444924e+02 4.046928e+02 0
5.850267e+02 4.519466e+02 0
3.238452e+02 2.388994e+02 0
-1.125215e+01 0.000000e+00 0
2.721817e+02 0.000000e+00 0
-1.111439e-12 0.000000e+00 0
-1.288174e+02 0.000000e+00 0
0.000000e+00 0.000000e+00 0
0.000000e+00 0.000000e+00 0
0.000000e+00 0.000000e+00 0
0.000000e+00 0.000000e+00 0
0.000000e+00 0.000000e+00 0
0.000000e+00 0.000000e+00 0
0.000000e+00 0.000000e+00 0
0.000000e+00 0.000000e+00 0
0.000000e+00 0.000000e+00 0
0.000000e+00 0.000000e+00 0
0.000000e+00 0.000000e+00 0
0.000000e+00 0.000000e+00 0
0.000000e+00 0.000000e+00 0
0.000000e+00 0.000000e+00 0
0.000000e+00 0.000000e+00 0
0.000000e+00 0.000000e+00 0
0.000000e+00 0.000000e+00 0
0.000000e+00 0.000000e+00 0
0.000000e+00 0.000000e+00 0
0.000000e+00 0.000000e+00 0
0.000000e+00 0.000000e+00 0
0.000000e+00 0.000000e+00 0
0.000000e+00 0.000000e+00 0
0.000000e+00 0.000000e+00 0
0.000000e+00 0.000000e+00 0
0.000000e+00 0.000000e+00 0
0.000000e+00 0.000000e+00 0
0.000000e+00 0.000000e+00 0
0.000000e+00 0.000000e+00 0
0.000000e+00 0.000000e+00 0
0.000000e+00 0.000000e+00 0
0.000000e+00 0.000000e+00 0
0.000000e+00 0.000000e+00 0
0.000000e+00 0.000000e+00 0
0.000000e+00 0.000000e+00 0
0.000000e+00 0.000000e+00 0
0.000000e+00 0.000000e+00 0
0.000000e+00 0.000000e+00 0
0.000000e+00 0.000000e+00 0
0.000000e+00 0.000000e+00 0
0.000000e+00 0.000000e+00 0
0.000000e+00 0.000000e+00 0
0.000000e+00 0.000000e+00 0
1.285871e+02 0.000000e+00 0
2.140319e+02 -1.618210e+02 0
5.245590e+02 -3.477140e+02 0
5.690242e+02 -3.789629e+02 0
5.607231e+02 -3.987803e+02 0
5.511609e+02 -3.337337e+02 0
4.033920e+02 -2.691054e+02 0
2.436482e+02 -1.510821e+02 0
-3.264656e-13 -1.000000e+01 0
0.000000e+00 0.000000e+00 0
-2.160706e+02 0.000000e+00 0
-1.681347e+02 0.000000e+00 0
-1.832837e+02 0.000000e+00 0
-2.215506e+02 0.000000e+00 0
-2.842537e+02 0.000000e+00 0
0.000000e+00 0.000000e+00 0
-1.228675e+02 -1.000000e+01 0
2.779847e+02 1.367884e+02 0
4.707544e+02 3.200090e+02 0
6.563342e+02 3.911685e+02 0
6.937671e+02 4.721660e+02 0
6.956167e+02 4.236712e+02 0
5.139112e+02 2.828378e+02 0
5.443634e+02 1.133848e+02 0
1.979206e+02 0.000000e+00 0
2.652533e-13 0.000000e+00 0
0.000000e+00 0.000000e+00 0
0.000000e+00 0.000000e+00 0
0.000000e+00 0.000000e+00 0
0.000000e+00 0.000000e+00 0
0.000000e+00 0.000000e+00 0
0.000000e+00 0.000000e+00 0
0.000000e+00 0.000000e+00 0
0.000000e+00 0.000000e+00 0
0.000000e+00 0.000000e+00 0
0.000000e+00 0.000000e+00 0
0.000000e+00 0.000000e+00 0
0.000000e+00 0.000000e+00 0
0.000000e+00 0.000000e+00 0
0.000000e+00 0.000000e+00 0
0.000000e+00 0.000000e+00 0
0.000000e+00 0.000000e+00 0
0.000000e+00 0.000000e+00 0
0.000000e+00 0.000000e+00 0
0.000000e+00 0.000000e+00 0
0.000000e+00 0.000000e+00 0
0.000000e+00 0.000000e+00 0
0.000000e+00 0.000000e+00 0
0.000000e+00 0.000000e+00 0
0.000000e+00 0.000000e+00 0
0.000000e+00 0.000000e+00 0
0.000000e+00 0.000000e+00 0
0.000000e+00 0.000000e+00 0
0.000000e+00 0.000000e+00 0
0.000000e+00 0.000000e+00 0
0.000000e+00 0.000000e+00 0
0.000000e+00 0.000000e+00 0
0.000000e+00 0.000000e+00 0
0.000000e+00 0.000000e+00 0
0.000000e+00 0.000000e+00 0
0.000000e+00 0.000000e+00 0
0.000000e+00 0.000000e+00 0
0.000000e+00 0.000000e+00 0
0.000000e+00 0.000000e+00 0
0.000000e+00 0.000000e+00 0
0.000000e+00 0.000000e+00 0
7.272506e-01 0.000000e+00 0
0.000000e+00 0.000000e+00 0
3.082139e+02 -8.106398e+01 0
4.102566e+02 -2.779508e+02 0
5.034586e+02 -4.182102e+02 0
5.550756e+02 -4.095699e+02 0
5.059317e+02 -3.680421e+02 0
4.462707e+02 -3.699286e+02 0
2.461703e+02 -2.001330e+02 0
1.061013e-12 -1.000000e+01 0
0.000000e+00 -2.000000e+01 0
-1.515514e+02 -2.000000e+01 0
3.688251e+01 0.000000e+00 0
0.000000e+00 0.000000e+00 0
-2.001807e-15 0.000000e+00 0
0.000000e+00 0.000000e+00 0
0.000000e+00 0.000000e+00 0
0.000000e+00 0.000000e+00 0
2.536665e+01 0.000000e+00 0
-1.228675e+02 -2.000000e+01 0
0.000000e+00 -2.000000e+01 0
0.000000e+00 -1.000000e+01 0
3.128001e+02 1.646060e+02 0
5.559784e+02 4.116060e+02 0
6.555727e+02 4.463250e+02 0
6.677415e+02 4.078350e+02 0
5.880931e+02 3.709619e+02 0
5.073965e+02 2.434167e+02 0
4.593547e+02 7.096472e+01 0
2.110483e+02 0.000000e+00 0
0.000000e+00 0.000000e+00 0
0.000000e+00 0.000000e+00 0
0.000000e+00 0.000000e+00 0
0.000000e+00 0.000000e+00 0
0.000000e+00 0.000000e+00 0
0.000000e+00 0.000000e+00 0
0.000000e+00 0.000000e+00 0
0.000000e+00 0.000000e+00 0
0.000000e+00 0.000000e+00 0
0.000000e+00 0.000000e+00 0
0.000000e+00 0.000000e+00 0
0.000000e+00 0.000000e+00 0
0.000000e+00 0.000000e+00 0
0.000000e+00 0.000000e+00 0
0.000000e+00 0.000000e+00 0
0.000000e+00 0.000000e+00 0
0.000000e+00 0.000000e+00 0
0.000000e+00 0.000000e+00 0
0.000000e+00 0.000000e+00 0
0.000000e+00 0.000000e+00 0
0.000000e+00 0.000000e+00 0
0.000000e+00 0.000000e+00 0
0.000000e+00 0.000000e+00 0
0.000000e+00 0.000000e+00 0
0.000000e+00 0.000000e+00 0
0.000000e+00 0.000000e+00 0
0.000000e+00 0.000000e+00 0
0.000000e+00 0.000000e+00 0
0.000000e+00 0.000000e+00 0
0.000000e+00 0.000000e+00 0
0.000000e+00 0.000000e+00 0
0.000000e+00 0.000000e+00 0
0.000000e+00 0.000000e+00 0
0.000000e+00 0.000000e+00 0
0.000000e+00 0.000000e+00 0
0.000000e+00 0.000000e+00 0
1.333947e-13 0.000000e+00 0
-6.184258e+01 0.000000e+00 0
-1.333947e-13 0.000000e+00 0
-1.594070e-15 0.000000e+00 0
2.941026e+02 -1.933699e+02 0
6.255291e+02 -4.421728e+02 0
5.362581e+02 -4.536558e+02 0
5.419206e+02 -4.196813e+02 0
5.228448e+02 -3.502537e+02 0
3.581211e+02 -2.672269e+02 0
1.849316e+02 -1.418017e+02 0
0.000000e+00 -2.000000e+01 0
-1.385747e+02 -1.000000e+01 0
2.938923e+01 0.000000e+00 0
0.000000e+00 0.000000e+00 0
-7.651537e-14 0.000000e+00 0
-3.946011e+01 2.141113e+01 0
-5.930764e+01 2.051232e+01 0
-6.277685e+01 -8.813145e+00 0
-5.773340e+01 -2.014827e+01 0
-3.639147e+01 -1.223394e+01 0
-5.611127e-14 0.000000e+00 0
0.000000e+00 0.000000e+00 0
-1.252459e-12 0.000000e+00 0
-1.451619e+02 -1.000000e+01 0
0.000000e+00 -2.000000e+01 0
2.009734e+02 1.419410e+02 0
4.415683e+02 3.316221e+02 0
5.393028e+02 3.591829e+02 0
5.930442e+02 3.399145e+02 0
6.015289e+02 2.513524e+02 0
5.774963e+02 3.039214e+02 0
3.915668e+02 3.711886e+02 0
1.187276e+02 1.582069e+02 0
0.000000e+00 0.000000e+00 0
7.129429e+01 0.000000e+00 0
0.000000e+00 0.000000e+00 0
0.000000e+00 0.000000e+00 0
0.000000e+00 0.000000e+00 0
0.000000e+00 0.000000e+00 0
0.000000e+00 0.000000e+00 0
0.000000e+00 0.000000e+00 0
0.000000e+00 0.000000e+00 0
0.000000e+00 0.000000e+00 0
0.000000e+00 0.000000e+00 0
0.000000e+00 0.000000e+00 0
0.000000e+00 0.000000e+00 0
0.000000e+00 0.000000e+00 0
0.000000e+00 0.000000e+00 0
0.000000e+00 0.000000e+00 0
0.000000e+00 0.000000e+00 0
0.000000e+00 0.000000e+00 0
0.000000e+00 0.000000e+00 0
0.000000e+00 0.000000e+00 0
0.000000e+00 0.000000e+00 0
0.000000e+00 0.000000e+00 0
0.000000e+00 0.000000e+00 0
0.000000e+00 0.000000e+00 0
0.000000e+00 0.000000e+00 0
0.000000e+00 0.000000e+00 0
0.000000e+00 0.000000e+00 0
0.000000e+00 0.000000e+00 0
0.000000e+00 0.000000e+00 0
0.000000e+00 0.000000e+00 0
0.000000e+00 0.000000e+00 0
0.000000e+00 0.000000e+00 0
0.000000e+00 0.000000e+00 0
0.000000e+00 0.000000e+00 0
-5.830146e+01 0.000000e+00 0
-2.718372e-28 0.000000e+00 0
1.326266e-13 0.000000e+00 0
1.304787e+02 -5.195199e+00 0
1.791695e+02 -1.851187e+02 0
5.638592e+02 -3.348829e+02 0
5.993373e+02 -3.393458e+02 0
4.911880e+02 -3.870883e+02 0
4.533314e+02 -4.044356e+02 0
2.397427e+02 -2.117337e+02 0
-2.652533e-13 -1.000000e+01 0
0.000000e+00 -2.000000e+01 0
2.702160e+01 -2.000000e+01 0
1.165714e-13 0.000000e+00 0
-6.631332e-14 0.000000e+00 0
-3.958936e+01 2.936656e+01 0
-7.372869e+01 3.967884e+01 0
-8.160428e+01 2.353329e+01 0
-7.521459e+01 1.716714e+01 0
-8.279085e+01 -8.461803e-01 0
-8.174205e+01 -1.962617e+01 0
-6.834213e+01 -3.219315e+01 0
-5.419466e+01 -3.657157e+01 0
-2.651534e+01 -1.921228e+01 0
2.667762e-13 0.000000e+00 0
3.091975e+01 0.000000e+00 0
0.000000e+00 -1.000000e+01 0
1.361218e-12 -2.000000e+01 0
1.577671e+02 9.895797e+01 0
3.217079e+02 2.366021e+02 0
5.056055e+02 2.727352e+02 0
5.489555e+02 2.823402e+02 0
4.870248e+02 3.380853e+02 0
3.843570e+02 4.225002e+02 0
2.521867e+02 3.621244e+02 0
2.920680e+01 1.404603e+02 0
-1.530307e-13 0.000000e+00 0
0.000000e+00 0.000000e+00 0
0.000000e+00 0.000000e+00 0
0.000000e+00 0.000000e+00 0
0.000000e+00 0.000000e+00 0
0.000000e+00 0.000000e+00 0
0.000000e+00 0.000000e+00 0
0.000000e+00 0.000000e+00 0
0.000000e+00 0.000000e+00 0
0.000000e+00 0.000000e+00 0
0.000000e+00 0.000000e+00 0
0.000000e+00 0.000000e+00 0
0.000000e+00 0.000000e+00 0
0.000000e+00 0.000000e+00 0
0.000000e+00 0.000000e+00 0
0.000000e+00 0.000000e+00 0
0.000000e+00 0.000000e+00 0
0.000000e+00 0.000000e+00 0
0.000000e+00 0.000000e+00 0
0.000000e+00 0.000000e+00 0
0.000000e+00 0.000000e+00 0
0.000000e+00 0.000000e+00 0
0.000000e+00 0.000000e+00 0
0.000000e+00 0.000000e+00 0
0.000000e+00 0.000000e+00 0
0.000000e+00 0.000000e+00 0
0.000000e+00 0.000000e+00 0
0.000000e+00 0.000000e+00 0
0.000000e+00 0.000000e+00 0
0.000000e+00 0.000000e+00 0
0.000000e+00 0.000000e+00 0
0.000000e+00 0.000000e+00 0