<?xml version="1.0"?>
<VTKFile type="StructuredGrid">
<StructuredGrid WholeExtent="0 68 0 35 0 0 ">
<Piece Extent="0 68 0 35 0 0 ">
<Points>
<DataArray type="Float64" format="ascii" NumberOfComponents="3">
0.000000e+00 0.000000e+00 0.000000e+00
1.029412e-01 0.000000e+00 0.000000e+00
2.058824e-01 0.000000e+00 0.000000e+00
3.088235e-01 0.000000e+00 0.000000e+00
4.117647e-01 0.000000e+00 0.000000e+00
5.147059e-01 0.000000e+00 0.000000e+00
6.176471e-01 0.000000e+00 0.000000e+00
7.205882e-01 0.000000e+00 0.000000e+00
8.235294e-01 0.000000e+00 0.000000e+00
9.264706e-01 0.000000e+00 0.000000e+00
1.029412e+00 0.000000e+00 0.000000e+00
1.132353e+00 0.000000e+00 0.000000e+00
1.235294e+00 0.000000e+00 0.000000e+00
1.338235e+00 0.000000e+00 0.000000e+00
1.441176e+00 0.000000e+00 0.000000e+00
1.544118e+00 0.000000e+00 0.000000e+00
1.647059e+00 0.000000e+00 0.000000e+00
1.750000e+00 0.000000e+00 0.000000e+00
1.852941e+00 0.000000e+00 0.000000e+00
1.955882e+00 0.000000e+00 0.000000e+00
2.058824e+00 0.000000e+00 0.000000e+00
2.161765e+00 0.000000e+00 0.000000e+00
2.264706e+00 0.000000e+00 0.000000e+00
2.367647e+00 0.000000e+00 0.000000e+00
2.470588e+00 0.000000e+00 0.000000e+00
2.573529e+00 0.000000e+00 0.000000e+00
2.676471e+00 0.000000e+00 0.000000e+00
2.779412e+00 0.000000e+00 0.000000e+00
2.882353e+00 0.000000e+00 0.000000e+00
2.985294e+00 0.000000e+00 0.000000e+00
3.088235e+00 0.000000e+00 0.000000e+00
3.191176e+00 0.000000e+00 0.000000e+00
3.294118e+00 0.000000e+00 0.000000e+00
3.397059e+00 0.000000e+00 0.000000e+00
3.500000e+00 0.000000e+00 0.000000e+00
3.602941e+00 0.000000e+00 0.000000e+00
3.705882e+00 0.000000e+00 0.000000e+00
3.808824e+00 0.000000e+00 0.000000e+00
3.911765e+00 0.000000e+00 0.000000e+00
4.014706e+00 0.000000e+00 0.000000e+00
4.117647e+00 0.000000e+00 0.000000e+00
4.220588e+00 0.000000e+00 0.000000e+00
4.323529e+00 0.000000e+00 0.000000e+00
4.426471e+00 0.000000e+00 0.000000e+00
4.529412e+00 0.000000e+00 0.000000e+00
4.632353e+00 0.000000e+00 0.000000e+00
4.735294e+00 0.000000e+00 0.000000e+00
4.838235e+00 0.000000e+00 0.000000e+00
4.941176e+00 0.000000e+00 0.000000e+00
5.044118e+00 0.000000e+00 0.000000e+00
5.147059e+00 0.000000e+00 0.000000e+00
5.250000e+00 0.000000e+00 0.000000e+00
5.352941e+00 0.000000e+00 0.000000e+00
5.455882e+00 0.000000e+00 0.000000e+00
5.558824e+00 0.000000e+00 0.000000e+00
5.661765e+00 0.000000e+00 0.000000e+00
5.764706e+00 0.000000e+00 0.000000e+00
5.867647e+00 0.000000e+00 0.000000e+00
5.970588e+00 0.000000e+00 0.000000e+00
6.073529e+00 0.000000e+00 0.000000e+00
6.176471e+00 0.000000e+00 0.000000e+00
6.279412e+00 0.000000e+00 0.000000e+00
6.382353e+00 0.000000e+00 0.000000e+00
6.485294e+00 0.000000e+00 0.000000e+00
6.588235e+00 0.000000e+00 0.000000e+00
6.691176e+00 0.000000e+00 0.000000e+00
6.794118e+00 0.000000e+00 0.000000e+00
6.897059e+00 0.000000e+00 0.000000e+00
7.000000e+00 0.000000e+00 0.000000e+00
0.000000e+00 1.057143e-01 0.000000e+00
1.029412e-01 1.057143e-01 0.000000e+00
2.058824e-01 1.057143e-01 0.000000e+00
3.088235e-01 1.057143e-01 0.000000e+00
4.117647e-01 1.057143e-01 0.000000e+00
5.147059e-01 1.057143e-01 0.000000e+00
6.176471e-01 1.057143e-01 0.000000e+00
7.205882e-01 1.057143e-01 0.000000e+00
8.235294e-01 1.057143e-01 0.000000e+00
9.264706e-01 1.057143e-01 0.000000e+00
1.029412e+00 1.057143e-01 0.000000e+00
1.132353e+00 1.057143e-01 0.000000e+00
1.235294e+00 1.057143e-01 0.000000e+00
1.338235e+00 1.057143e-01 0.000000e+00
1.441176e+00 1.057143e-01 0.000000e+00
1.544118e+00 1.057143e-01 0.000000e+00
1.647059e+00 1.057143e-01 0.000000e+00
1.750000e+00 1.057143e-01 0.000000e+00
1.852941e+00 1.057143e-01 0.000000e+00
1.955882e+00 1.057143e-01 0.000000e+00
2.058824e+00 1.057143e-01 0.000000e+00
2.161765e+00 1.057143e-01 0.000000e+00
2.264706e+00 1.057143e-01 0.000000e+00
2.367647e+00 1.057143e-01 0.000000e+00
2.470588e+00 1.057143e-01 0.000000e+00
2.573529e+00 1.057143e-01 0.000000e+00
2.676471e+00 1.057143e-01 0.000000e+00
2.779412e+00 1.057143e-01 0.000000e+00
2.882353e+00 1.057143e-01 0.000000e+00
2.985294e+00 1.057143e-01 0.000000e+00
3.088235e+00 1.057143e-01 0.000000e+00
3.191176e+00 1.057143e-01 0.000000e+00
3.294118e+00 1.057143e-01 0.000000e+00
3.397059e+00 1.057143e-01 0.000000e+00
3.500000e+00 1.057143e-01 0.000000e+00
3.602941e+00 1.057143e-01 0.000000e+00
3.705882e+00 1.057143e-01 0.000000e+00
3.808824e+00 1.057143e-01 0.000000e+00
3.911765e+00 1.057143e-01 0.000000e+00
4.014706e+00 1.057143e-01 0.000000e+00
4.117647e+00 1.057143e-01 0.000000e+00
4.220588e+00 1.057143e-01 0.000000e+00
4.323529e+00 1.057143e-01 0.000000e+00
4.426471e+00 1.057143e-01 0.000000e+00
4.529412e+00 1.057143e-01 0.000000e+00
4.632353e+00 1.057143e-01 0.000000e+00
4.735294e+00 1.057143e-01 0.000000e+00
4.838235e+00 1.057143e-01 0.000000e+00
4.941176e+00 1.057143e-01 0.000000e+00
5.044118e+00 1.057143e-01 0.000000e+00
5.147059e+00 1.057143e-01 0.000000e+00
5.250000e+00 1.057143e-01 0.000000e+00
5.352941e+00 1.057143e-01 0.000000e+00
5.455882e+00 1.057143e-01 0.000000e+00
5.558824e+00 1.057143e-01 0.000000e+00
5.661765e+00 1.057143e-01 0.000000e+00
5.764706e+00 1.057143e-01 0.000000e+00
5.867647e+00 1.057143e-01 0.000000e+00
5.970588e+00 1.057143e-01 0.000000e+00
6.073529e+00 1.057143e-01 0.000000e+00
6.176471e+00 1.057143e-01 0.000000e+00
6.279412e+00 1.057143e-01 0.000000e+00
6.382353e+00 1.057143e-01 0.000000e+00
6.485294e+00 1.057143e-01 0.000000e+00
6.588235e+00 1.057143e-01 0.000000e+00
6.691176e+00 1.057143e-01 0.000000e+00
6.794118e+00 1.057143e-01 0.000000e+00
6.897059e+00 1.057143e-01 0.000000e+00
7.000000e+00 1.057143e-01 0.000000e+00
0.000000e+00 2.114286e-01 0.000000e+00
1.029412e-01 2.114286e-01 0.000000e+00
2.058824e-01 2.114286e-01 0.000000e+00
3.088235e-01 2.114286e-01 0.000000e+00
4.117647e-01 2.114286e-01 0.000000e+00
5.147059e-01 2.114286e-01 0.000000e+00
6.176471e-01 2.114286e-01 0.000000e+00
7.205882e-01 2.114286e-01 0.000000e+00
8.235294e-01 2.114286e-01 0.000000e+00
9.264706e-01 2.114286e-01 0.000000e+00
1.029412e+00 2.114286e-01 0.000000e+00
1.132353e+00 2.114286e-01 0.000000e+00
1.235294e+00 2.114286e-01 0.000000e+00
1.338235e+00 2.114286e-01 0.000000e+00
1.441176e+00 2.114286e-01 0.000000e+00
1.544118e+00 2.114286e-01 0.000000e+00
1.647059e+00 2.114286e-01 0.000000e+00
1.750000e+00 2.114286e-01 0.000000e+00
1.852941e+00 2.114286e-01 0.000000e+00
1.955882e+00 2.114286e-01 0.000000e+00
2.058824e+00 2.114286e-01 0.000000e+00
2.161765e+00 2.114286e-01 0.000000e+00
2.264706e+00 2.114286e-01 0.000000e+00
2.367647e+00 2.114286e-01 0.000000e+00
2.470588e+00 2.114286e-01 0.000000e+00
2.573529e+00 2.114286e-01 0.000000e+00
2.676471e+00 2.114286e-01 0.000000e+00
2.779412e+00 2.114286e-01 0.000000e+00
2.882353e+00 2.114286e-01 0.000000e+00
2.985294e+00 2.114286e-01 0.000000e+00
3.088235e+00 2.114286e-01 0.000000e+00
3.191176e+00 2.114286e-01 0.000000e+00
3.294118e+00 2.114286e-01 0.000000e+00
3.397059e+00 2.114286e-01 0.000000e+00
3.500000e+00 2.114286e-01 0.000000e+00
3.602941e+00 2.114286e-01 0.000000e+00
3.705882e+00 2.114286e-01 0.000000e+00
3.808824e+00 2.114286e-01 0.000000e+00
3.911765e+00 2.114286e-01 0.000000e+00
4.014706e+00 2.114286e-01 0.000000e+00
4.117647e+00 2.114286e-01 0.000000e+00
4.220588e+00 2.114286e-01 0.000000e+00
4.323529e+00 2.114286e-01 0.000000e+00
4.426471e+00 2.114286e-01 0.000000e+00
4.529412e+00 2.114286e-01 0.000000e+00
4.632353e+00 2.114286e-01 0.000000e+00
4.735294e+00 2.114286e-01 0.000000e+00
4.838235e+00 2.114286e-01 0.000000e+00
4.941176e+00 2.114286e-01 0.000000e+00
5.044118e+00 2.114286e-01 0.000000e+00
5.147059e+00 2.114286e-01 0.000000e+00
5.250000e+00 2.114286e-01 0.000000e+00
5.352941e+00 2.114286e-01 0.000000e+00
5.455882e+00 2.114286e-01 0.000000e+00
5.558824e+00 2.114286e-01 0.000000e+00
5.661765e+00 2.114286e-01 0.000000e+00
5.764706e+00 2.114286e-01 0.000000e+00
5.867647e+00 2.114286e-01 0.000000e+00
5.970588e+00 2.114286e-01 0.000000e+00
6.073529e+00 2.114286e-01 0.000000e+00
6.176471e+00 2.114286e-01 0.000000e+00
6.279412e+00 2.114286e-01 0.000000e+00
6.382353e+00 2.114286e-01 0.000000e+00
6.485294e+00 2.114286e-01 0.000000e+00
6.588235e+00 2.114286e-01 0.000000e+00
6.691176e+00 2.114286e-01 0.000000e+00
6.794118e+00 2.114286e-01 0.000000e+00
6.897059e+00 2.114286e-01 0.000000e+00
7.000000e+00 2.114286e-01 0.000000e+00
0.000000e+00 3.171429e-01 0.000000e+00
1.029412e-01 3.171429e-01 0.000000e+00
2.058824e-01 3.171429e-01 0.000000e+00
3.088235e-01 3.171429e-01 0.000000e+00
4.117647e-01 3.171429e-01 0.000000e+00
5.147059e-01 3.171429e-01 0.000000e+00
6.176471e-01 3.171429e-01 0.000000e+00
7.205882e-01 3.171429e-01 0.000000e+00
8.235294e-01 3.171429e-01 0.000000e+00
9.264706e-01 3.171429e-01 0.000000e+00
1.029412e+00 3.171429e-01 0.000000e+00
1.132353e+00 3.171429e-01 0.000000e+00
1.235294e+00 3.171429e-01 0.000000e+00
1.338235e+00 3.171429e-01 0.000000e+00
1.441176e+00 3.171429e-01 0.000000e+00
1.544118e+00 3.171429e-01 0.000000e+00
1.647059e+00 3.171429e-01 0.000000e+00
1.750000e+00 3.171429e-01 0.000000e+00
1.852941e+00 3.171429e-01 0.000000e+00
1.955882e+00 3.171429e-01 0.000000e+00
2.058824e+00 3.171429e-01 0.000000e+00
2.161765e+00 3.171429e-01 0.000000e+00
2.264706e+00 3.171429e-01 0.000000e+00
2.367647e+00 3.171429e-01 0.000000e+00
2.470588e+00 3.171429e-01 0.000000e+00
2.573529e+00 3.171429e-01 0.000000e+00
2.676471e+00 3.171429e-01 0.000000e+00
2.779412e+00 3.171429e-01 0.000000e+00
2.882353e+00 3.171429e-01 0.000000e+00
2.985294e+00 3.171429e-01 0.000000e+00
3.088235e+00 3.171429e-01 0.000000e+00
3.191176e+00 3.171429e-01 0.000000e+00
3.294118e+00 3.171429e-01 0.000000e+00
3.397059e+00 3.171429e-01 0.000000e+00
3.500000e+00 3.171429e-01 0.000000e+00
3.602941e+00 3.171429e-01 0.000000e+00
3.705882e+00 3.171429e-01 0.000000e+00
3.808824e+00 3.171429e-01 0.000000e+00
3.911765e+00 3.171429e-01 0.000000e+00
4.014706e+00 3.171429e-01 0.000000e+00
4.117647e+00 3.171429e-01 0.000000e+00
4.220588e+00 3.171429e-01 0.000000e+00
4.323529e+00 3.171429e-01 0.000000e+00
4.426471e+00 3.171429e-01 0.000000e+00
[...]
<PointData>
<DataArray Name="Velocity" type="Float64" format="ascii" NumberOfComponents="3">
0.000000e+00 0.000000e+00 0
0.000000e+00 0.000000e+00 0
0.000000e+00 0.000000e+00 0
0.000000e+00 0.000000e+00 0
0.000000e+00 0.000000e+00 0
0.000000e+00 0.000000e+00 0
0.000000e+00 0.000000e+00 0
0.000000e+00 0.000000e+00 0
0.000000e+00 0.000000e+00 0
0.000000e+00 0.000000e+00 0
0.000000e+00 0.000000e+00 0
0.000000e+00 0.000000e+00 0
0.000000e+00 0.000000e+00 0
0.000000e+00 0.000000e+00 0
0.000000e+00 0.000000e+00 0
0.000000e+00 0.000000e+00 0
0.000000e+00 0.000000e+00 0
0.000000e+00 0.000000e+00 0
0.000000e+00 0.000000e+00 0
0.000000e+00 0.000000e+00 0
0.000000e+00 0.000000e+00 0
0.000000e+00 0.000000e+00 0
0.000000e+00 0.000000e+00 0
0.000000e+00 0.000000e+00 0
0.000000e+00 0.000000e+00 0
0.000000e+00 0.000000e+00 0
0.000000e+00 0.000000e+00 0
0.000000e+00 0.000000e+00 0
0.000000e+00 0.000000e+00 0
0.000000e+00 0.000000e+00 0
0.000000e+00 0.000000e+00 0
0.000000e+00 0.000000e+00 0
2.759482e+01 0.000000e+00 0
0.000000e+00 0.000000e+00 0
0.000000e+00 0.000000e+00 0
2.798825e-16 0.000000e+00 0
0.000000e+00 0.000000e+00 0
0.000000e+00 0.000000e+00 0
0.000000e+00 0.000000e+00 0
0.000000e+00 0.000000e+00 0
1.587185e+01 0.000000e+00 0
0.000000e+00 0.000000e+00 0
0.000000e+00 0.000000e+00 0
0.000000e+00 0.000000e+00 0
0.000000e+00 0.000000e+00 0
0.000000e+00 0.000000e+00 0
0.000000e+00 0.000000e+00 0
0.000000e+00 0.000000e+00 0
0.000000e+00 0.000000e+00 0
0.000000e+00 0.000000e+00 0
0.000000e+00 0.000000e+00 0
0.000000e+00 0.000000e+00 0
0.000000e+00 0.000000e+00 0
0.000000e+00 0.000000e+00 0
0.000000e+00 0.000000e+00 0
0.000000e+00 0.000000e+00 0
0.000000e+00 0.000000e+00 0
0.000000e+00 0.000000e+00 0
0.000000e+00 0.000000e+00 0
0.000000e+00 0.000000e+00 0
0.000000e+00 0.000000e+00 0
0.000000e+00 0.000000e+00 0
0.000000e+00 0.000000e+00 0
0.000000e+00 0.000000e+00 0
0.000000e+00 0.000000e+00 0
0.000000e+00 0.000000e+00 0
0.000000e+00 0.000000e+00 0
0.000000e+00 0.000000e+00 0
0.000000e+00 0.000000e+00 0
0.000000e+00 0.000000e+00 0
0.000000e+00 0.000000e+00 0
0.000000e+00 0.000000e+00 0
0.000000e+00 0.000000e+00 0
0.000000e+00 0.000000e+00 0
0.000000e+00 0.000000e+00 0
0.000000e+00 0.000000e+00 0
0.000000e+00 0.000000e+00 0
0.000000e+00 0.000000e+00 0
0.000000e+00 0.000000e+00 0
0.000000e+00 0.000000e+00 0
0.000000e+00 0.000000e+00 0
0.000000e+00 0.000000e+00 0
0.000000e+00 0.000000e+00 0
0.000000e+00 0.000000e+00 0
0.000000e+00 0.000000e+00 0
0.000000e+00 0.000000e+00 0
0.000000e+00 0.000000e+00 0
0.000000e+00 0.000000e+00 0
0.000000e+00 0.000000e+00 0
0.000000e+00 0.000000e+00 0
0.000000e+00 0.000000e+00 0
0.000000e+00 0.000000e+00 0
0.000000e+00 0.000000e+00 0
0.000000e+00 0.000000e+00 0
0.000000e+00 0.000000e+00 0
0.000000e+00 0.000000e+00 0
0.000000e+00 0.000000e+00 0
0.000000e+00 0.000000e+00 0
0.000000e+00 0.000000e+00 0
3.008204e+01 0.000000e+00 0
0.000000e+00 0.000000e+00 0
0.000000e+00 0.000000e+00 0
-3.796356e+01 1.574445e+01 0
-5.382022e+01 1.832101e+01 0
-5.987242e+01 2.012192e+00 0
-6.141810e+01 -4.105623e+00 0
-5.796533e+01 -1.072484e+01 0
-4.845085e+01 -1.623506e+01 0
-3.292978e+01 -9.051483e+00 0
0.000000e+00 0.000000e+00 0
0.000000e+00 0.000000e+00 0
0.000000e+00 0.000000e+00 0
0.000000e+00 0.000000e+00 0
0.000000e+00 0.000000e+00 0
0.000000e+00 0.000000e+00 0
0.000000e+00 0.000000e+00 0
0.000000e+00 0.000000e+00 0
0.000000e+00 0.000000e+00 0
0.000000e+00 0.000000e+00 0
0.000000e+00 0.000000e+00 0
0.000000e+00 0.000000e+00 0
0.000000e+00 0.000000e+00 0
0.000000e+00 0.000000e+00 0
0.000000e+00 0.000000e+00 0
0.000000e+00 0.000000e+00 0
0.000000e+00 0.000000e+00 0
0.000000e+00 0.000000e+00 0
0.000000e+00 0.000000e+00 0
0.000000e+00 0.000000e+00 0
0.000000e+00 0.000000e+00 0
0.000000e+00 0.000000e+00 0
0.000000e+00 0.000000e+00 0
0.000000e+00 0.000000e+00 0
0.000000e+00 0.000000e+00 0
0.000000e+00 0.000000e+00 0
0.000000e+00 0.000000e+00 0
0.000000e+00 0.000000e+00 0
0.000000e+00 0.000000e+00 0
0.000000e+00 0.000000e+00 0
0.000000e+00 0.000000e+00 0
0.000000e+00 0.000000e+00 0
0.000000e+00 0.000000e+00 0
0.000000e+00 0.000000e+00 0
0.000000e+00 0.000000e+00 0
0.000000e+00 0.000000e+00 0
0.000000e+00 0.000000e+00 0
0.000000e+00 0.000000e+00 0
0.000000e+00 0.000000e+00 0
0.000000e+00 0.000000e+00 0
0.000000e+00 0.000000e+00 0
0.000000e+00 0.000000e+00 0
0.000000e+00 0.000000e+00 0
0.000000e+00 0.000000e+00 0
0.000000e+00 0.000000e+00 0
0.000000e+00 0.000000e+00 0
0.000000e+00 0.000000e+00 0
0.000000e+00 0.000000e+00 0
0.000000e+00 0.000000e+00 0
0.000000e+00 0.000000e+00 0
0.000000e+00 0.000000e+00 0
0.000000e+00 0.000000e+00 0
0.000000e+00 0.000000e+00 0
0.000000e+00 0.000000e+00 0
0.000000e+00 0.000000e+00 0
0.000000e+00 0.000000e+00 0
0.000000e+00 0.000000e+00 0
2.902800e+01 0.000000e+00 0
0.000000e+00 0.000000e+00 0
-1.020205e-14 0.000000e+00 0
-4.615847e+01 2.480712e+01 0
-7.513809e+01 3.768020e+01 0
-9.126597e+01 2.681084e+01 0
-8.994721e+01 2.015325e+01 0
-9.520569e+01 7.803122e+00 0
-9.825829e+01 -1.957809e+00 0
-9.858545e+01 -1.331582e+01 0
-9.485739e+01 -2.538401e+01 0
-8.565784e+01 -3.343903e+01 0
-6.020460e+01 -3.573363e+01 0
-3.188038e+01 -1.790821e+01 0
0.000000e+00 0.000000e+00 0
2.779959e+01 0.000000e+00 0
0.000000e+00 0.000000e+00 0
0.000000e+00 0.000000e+00 0
0.000000e+00 0.000000e+00 0
0.000000e+00 0.000000e+00 0
0.000000e+00 0.000000e+00 0
0.000000e+00 0.000000e+00 0
0.000000e+00 0.000000e+00 0
0.000000e+00 0.000000e+00 0
0.000000e+00 0.000000e+00 0
0.000000e+00 0.000000e+00 0
0.000000e+00 0.000000e+00 0
0.000000e+00 0.000000e+00 0
0.000000e+00 0.000000e+00 0
0.000000e+00 0.000000e+00 0
0.000000e+00 0.000000e+00 0
0.000000e+00 0.000000e+00 0
0.000000e+00 0.000000e+00 0
0.000000e+00 0.000000e+00 0
0.000000e+00 0.000000e+00 0
0.000000e+00 0.000000e+00 0
0.000000e+00 0.000000e+00 0
0.000000e+00 0.000000e+00 0
0.000000e+00 0.000000e+00 0
0.000000e+00 0.000000e+00 0
0.000000e+00 0.000000e+00 0
0.000000e+00 0.000000e+00 0
0.000000e+00 0.000000e+00 0
0.000000e+00 0.000000e+00 0
0.000000e+00 0.000000e+00 0
0.000000e+00 0.000000e+00 0
0.000000e+00 0.000000e+00 0
0.000000e+00 0.000000e+00 0
0.000000e+00 0.000000e+00 0
0.000000e+00 0.000000e+00 0
0.000000e+00 0.000000e+00 0
0.000000e+00 0.000000e+00 0
0.000000e+00 0.000000e+00 0
0.000000e+00 0.000000e+00 0
0.000000e+00 0.000000e+00 0
0.000000e+00 0.000000e+00 0
0.000000e+00 0.000000e+00 0
0.000000e+00 0.000000e+00 0
0.000000e+00 0.000000e+00 0
0.000000e+00 0.000000e+00 0
0.000000e+00 0.000000e+00 0
0.000000e+00 0.000000e+00 0
0.000000e+00 0.000000e+00 0
0.000000e+00 0.000000e+00 0
0.000000e+00 0.000000e+00 0
0.000000e+00 0.000000e+00 0
0.000000e+00 0.000000e+00 0
0.000000e+00 0.000000e+00 0
0.000000e+00 7.506124e-15 0
1.530307e-14 1.321068e-14 0
-4.756478e+01 2.805442e+01 0
-8.048692e+01 4.791239e+01 0
-1.036112e+02 4.608721e+01 0
-1.053948e+02 4.501664e+01 0
-1.137144e+02 3.317766e+01 0
-1.137699e+02 2.236708e+01 0
-1.152107e+02 1.054745e+01 0
-1.168834e+02 -6.344719e-01 0
-1.193061e+02 -1.421697e+01 0
-1.224248e+02 -2.951050e+01 0
-5.272806e+01 -4.494538e+01 0
-1.091668e+02 -5.714265e+01 0
-9.476151e+01 -5.810880e+01 0
-5.488825e+01 -2.741290e+01 0
1.530307e-14 -1.593499e-14 0
0.000000e+00 -7.685269e-15 0
0.000000e+00 0.000000e+00 0
0.000000e+00 0.000000e+00 0
0.000000e+00 0.000000e+00 0
0.000000e+00 0.000000e+00 0
0.000000e+00 0.000000e+00 0
0.000000e+00 0.000000e+00 0
0.000000e+00 0.000000e+00 0
0.000000e+00 0.000000e+00 0
0.000000e+00 0.000000e+00 0
0.000000e+00 0.000000e+00 0
0.000000e+00 0.000000e+00 0
0.000000e+00 0.000000e+00 0
0.000000e+00 0.000000e+00 0
0.000000e+00 0.000000e+00 0
0.000000e+00 0.000000e+00 0
0.000000e+00 0.000000e+00 0
0.000000e+00 0.000000e+00 0
0.000000e+00 0.000000e+00 0
0.000000e+00 0.000000e+00 0
0.000000e+00 0.000000e+00 0
0.000000e+00 0.000000e+00 0
0.000000e+00 0.000000e+00 0
0.000000e+00 0.000000e+00 0
0.000000e+00 0.000000e+00 0
0.000000e+00 0.000000e+00 0
0.000000e+00 0.000000e+00 0
0.000000e+00 0.000000e+00 0
0.000000e+00 0.000000e+00 0
0.000000e+00 0.000000e+00 0
0.000000e+00 0.000000e+00 0
0.000000e+00 0.000000e+00 0
0.000000e+00 0.000000e+00 0
0.000000e+00 0.000000e+00 0
0.000000e+00 0.000000e+00 0
0.000000e+00 0.000000e+00 0
0.000000e+00 0.000000e+00 0
0.000000e+00 0.000000e+00 0
0.000000e+00 0.000000e+00 0
0.000000e+00 0.000000e+00 0
0.000000e+00 0.000000e+00 0
0.000000e+00 0.000000e+00 0
0.000000e+00 0.000000e+00 0
0.000000e+00 0.000000e+00 0
0.000000e+00 0.000000e+00 0
0.000000e+00 0.000000e+00 0
0.000000e+00 0.000000e+00 0
0.000000e+00 0.000000e+00 0
0.000000e+00 0.000000e+00 0
0.000000e+00 0.000000e+00 0
2.868593e+01 0.000000e+00 0
0.000000e+00 0.000000e+00 0
-4.289132e+01 2.858902e+01 0
-7.942960e+01 5.031630e+01 0
-1.066688e+02 5.269832e+01 0
-1.096653e+02 5.806673e+01 0
-1.179348e+02 5.373443e+01 0
-1.176610e+02 4.805561e+01 0
-1.223189e+02 3.541168e+01 0
-1.106989e+02 2.169009e+01 0
-1.029312e+02 1.100079e+01 0
-1.004278e+02 2.248231e+00 0
-1.035486e+02 -7.624655e+00 0
-1.142714e+02 -6.567370e+00 0
-5.822971e+01 -3.158217e+01 0
-1.223662e+02 -6.428350e+01 0
-1.247150e+02 -6.832226e+01 0
-1.147788e+02 -6.704212e+01 0
-8.060976e+01 -6.069252e+01 0
-3.926378e+01 -2.927133e+01 0
0.000000e+00 0.000000e+00 0
4.219537e+01 0.000000e+00 0
2.089148e+01 0.000000e+00 0
0.000000e+00 0.000000e+00 0
0.000000e+00 0.000000e+00 0
0.000000e+00 0.000000e+00 0
0.000000e+00 0.000000e+00 0
0.000000e+00 0.000000e+00 0
0.000000e+00 0.000000e+00 0
0.000000e+00 0.000000e+00 0
0.000000e+00 0.000000e+00 0
0.000000e+00 0.000000e+00 0
0.000000e+00 0.000000e+00 0
0.000000e+00 0.000000e+00 0
0.000000e+00 0.000000e+00 0
0.000000e+00 0.000000e+00 0
0.000000e+00 0.000000e+00 0
0.000000e+00 0.000000e+00 0
0.000000e+00 0.000000e+00 0
0.000000e+00 0.000000e+00 0
0.000000e+00 0.000000e+00 0
0.000000e+00 0.000000e+00 0
0.000000e+00 0.000000e+00 0
0.000000e+00 0.000000e+00 0
0.000000e+00 0.000000e+00 0
0.000000e+00 0.000000e+00 0
0.000000e+00 0.000000e+00 0
0.000000e+00 0.000000e+00 0
0.000000e+00 0.000000e+00 0
0.000000e+00 0.000000e+00 0
0.000000e+00 0.000000e+00 0
0.000000e+00 0.000000e+00 0
0.000000e+00 0.000000e+00 0
0.000000e+00 0.000000e+00 0
0.000000e+00 0.000000e+00 0
0.000000e+00 0.000000e+00 0
0.000000e+00 0.000000e+00 0
0.000000e+00 0.000000e+00 0
0.000000e+00 0.000000e+00 0
0.000000e+00 0.000000e+00 0
0.000000e+00 0.000000e+00 0
0.000000e+00 0.000000e+00 0
0.000000e+00 0.000000e+00 0
0.000000e+00 0.000000e+00 0
0.000000e+00 0.000000e+00 0
0.000000e+00 0.000000e+00 0
0.000000e+00 0.000000e+00 0
0.000000e+00 0.000000e+00 0
0.000000e+00 0.000000e+00 0
3.060615e-14 0.000000e+00 0
-5.306804e+01 4.068047e+01 0
-9.920331e+01 7.698208e+01 0
-1.085234e+02 6.696576e+01 0
-1.172983e+02 6.179576e+01 0
-1.101300e+02 5.948190e+01 0
-9.961305e+01 5.429829e+01 0
-6.393545e+01 4.951887e+01 0
-6.190697e+01 2.357086e+01 0
-5.101025e-14 0.000000e+00 0
-4.486064e-14 0.000000e+00 0
-4.590922e-14 0.000000e+00 0
-4.590922e-14 0.000000e+00 0
-5.101025e-14 0.000000e+00 0
-5.822971e+01 -3.229843e+01 0
-9.343320e+01 -6.058195e+01 0
-1.131545e+02 -6.589995e+01 0
-1.186205e+02 -7.630859e+01 0
-1.188023e+02 -8.187464e+01 0
-1.048053e+02 -7.626081e+01 0
-6.233137e+01 -3.307833e+01 0
3.909196e-14 0.000000e+00 0
2.040410e-14 0.000000e+00 0
1.498135e-13 0.000000e+00 0
1.736360e+01 0.000000e+00 0
0.000000e+00 0.000000e+00 0
0.000000e+00 0.000000e+00 0
0.000000e+00 0.000000e+00 0
0.000000e+00 0.000000e+00 0
0.000000e+00 0.000000e+00 0
0.000000e+00 0.000000e+00 0
0.000000e+00 0.000000e+00 0
0.000000e+00 0.000000e+00 0
0.000000e+00 0.000000e+00 0
0.000000e+00 0.000000e+00 0
0.000000e+00 0.000000e+00 0
0.000000e+00 0.000000e+00 0
0.000000e+00 0.000000e+00 0
0.000000e+00 0.000000e+00 0
0.000000e+00 0.000000e+00 0
0.000000e+00 0.000000e+00 0
0.000000e+00 0.000000e+00 0
0.000000e+00 0.000000e+00 0
0.000000e+00 0.000000e+00 0
0.000000e+00 0.000000e+00 0
0.000000e+00 0.000000e+00 0
0.000000e+00 0.000000e+00 0
0.000000e+00 0.000000e+00 0
0.000000e+00 0.000000e+00 0
0.000000e+00 0.000000e+00 0
0.000000e+00 0.000000e+00 0
0.000000e+00 0.000000e+00 0
0.000000e+00 0.000000e+00 0
0.000000e+00 0.000000e+00 0
0.000000e+00 0.000000e+00 0
0.000000e+00 0.000000e+00 0
0.000000e+00 0.000000e+00 0
0.000000e+00 0.000000e+00 0
0.000000e+00 0.000000e+00 0
0.000000e+00 0.000000e+00 0
0.000000e+00 0.000000e+00 0
0.000000e+00 0.000000e+00 0
0.000000e+00 0.000000e+00 0
0.000000e+00 0.000000e+00 0
0.000000e+00 0.000000e+00 0
0.000000e+00 0.000000e+00 0
0.000000e+00 0.000000e+00 0
0.000000e+00 0.000000e+00 0
-4.304382e+01 2.950797e+01 0
-8.130668e+01 5.883679e+01 0
-1.152820e+02 7.334063e+01 0
-1.160470e+02 8.217199e+01 0
-1.139902e+02 6.889877e+01 0
-1.046396e+02 5.434819e+01 0
-6.654871e+01 3.990505e+01 0
-3.913098e+01 6.295446e+00 0
8.926793e-15 -1.000000e+01 0
0.000000e+00 0.000000e+00 0
5.067202e+01 0.000000e+00 0
5.955950e+01 0.000000e+00 0
5.559199e+01 0.000000e+00 0
5.014077e+01 0.000000e+00 0
4.738408e+01 0.000000e+00 0
0.000000e+00 0.000000e+00 0
7.141435e-14 -1.000000e+01 0
-5.132067e+01 -4.000745e+01 0
-9.046406e+01 -6.124155e+01 0
-1.131313e+02 -7.487918e+01 0
-1.160224e+02 -8.001986e+01 0
-1.126062e+02 -6.326984e+01 0
-8.952810e+01 -4.877222e+01 0
-6.327518e+01 -4.163016e+01 0
-3.664161e+01 -1.975301e+01 0
-3.570717e-14 0.000000e+00 0
0.000000e+00 0.000000e+00 0
0.000000e+00 0.000000e+00 0
0.000000e+00 0.000000e+00 0
0.000000e+00 0.000000e+00 0
0.000000e+00 0.000000e+00 0
0.000000e+00 0.000000e+00 0
0.000000e+00 0.000000e+00 0
0.000000e+00 0.000000e+00 0
0.000000e+00 0.000000e+00 0
0.000000e+00 0.000000e+00 0
0.000000e+00 0.000000e+00 0
0.000000e+00 0.000000e+00 0
0.000000e+00 0.000000e+00 0
0.000000e+00 0.000000e+00 0
0.000000e+00 0.000000e+00 0
0.000000e+00 0.000000e+00 0
0.000000e+00 0.000000e+00 0
0.000000e+00 0.000000e+00 0
0.000000e+00 0.000000e+00 0
0.000000e+00 0.000000e+00 0
0.000000e+00 0.000000e+00 0
0.000000e+00 0.000000e+00 0
0.000000e+00 0.000000e+00 0
0.000000e+00 0.000000e+00 0
0.000000e+00 0.000000e+00 0
0.000000e+00 0.000000e+00 0
0.000000e+00 0.000000e+00 0
0.000000e+00 0.000000e+00 0
0.000000e+00 0.000000e+00 0
0.000000e+00 0.000000e+00 0
0.000000e+00 0.000000e+00 0
0.000000e+00 0.000000e+00 0
0.000000e+00 0.000000e+00 0
0.000000e+00 0.000000e+00 0
0.000000e+00 0.000000e+00 0
0.000000e+00 0.000000e+00 0
0.000000e+00 0.000000e+00 0
0.000000e+00 0.000000e+00 0
0.000000e+00 0.000000e+00 0
0.000000e+00 0.000000e+00 0
4.198910e+01 0.000000e+00 0
-2.706960e+01 0.000000e+00 0
-5.674556e+01 4.115923e+01 0
-1.013036e+02 8.050212e+01 0
-1.131657e+02 7.852332e+01 0
-1.206649e+02 8.064654e+01 0
-1.069980e+02 7.565554e+01 0
-8.923982e+01 5.525105e+01 0
-4.644528e+01 1.106161e+01 0
-2.014905e-13 -1.000000e+01 0
0.000000e+00 -2.000000e+01 0
4.125964e+00 -2.000000e+01 0
2.607105e+01 0.000000e+00 0
0.000000e+00 0.000000e+00 0
1.124796e-15 0.000000e+00 0
0.000000e+00 0.000000e+00 0
0.000000e+00 0.000000e+00 0
0.000000e+00 0.000000e+00 0
1.079784e+01 0.000000e+00 0
3.590110e+01 -2.000000e+01 0
0.000000e+00 -2.000000e+01 0
0.000000e+00 -1.000000e+01 0
-4.713917e+01 -5.021317e+01 0
-8.316065e+01 -7.679937e+01 0
-8.806408e+01 -6.650242e+01 0
-8.775088e+01 -5.687554e+01 0
-8.300467e+01 -5.260891e+01 0
-7.439269e+01 -4.705882e+01 0
-4.839720e+01 -4.018267e+01 0
-2.169938e+01 -1.877344e+01 0
0.000000e+00 0.000000e+00 0
0.000000e+00 0.000000e+00 0
0.000000e+00 0.000000e+00 0
0.000000e+00 0.000000e+00 0
0.000000e+00 0.000000e+00 0
0.000000e+00 0.000000e+00 0
0.000000e+00 0.000000e+00 0
0.000000e+00 0.000000e+00 0
0.000000e+00 0.000000e+00 0
0.000000e+00 0.000000e+00 0
0.000000e+00 0.000000e+00 0
0.000000e+00 0.000000e+00 0
0.000000e+00 0.000000e+00 0
0.000000e+00 0.000000e+00 0
0.000000e+00 0.000000e+00 0
0.000000e+00 0.000000e+00 0
0.000000e+00 0.000000e+00 0
0.000000e+00 0.000000e+00 0
0.000000e+00 0.000000e+00 0
0.000000e+00 0.000000e+00 0
0.000000e+00 0.000000e+00 0
0.000000e+00 0.000000e+00 0
0.000000e+00 0.000000e+00 0
0.000000e+00 0.000000e+00 0
0.000000e+00 0.000000e+00 0
0.000000e+00 0.000000e+00 0
0.000000e+00 0.000000e+00 0
0.000000e+00 0.000000e+00 0
0.000000e+00 0.000000e+00 0
0.000000e+00 0.000000e+00 0
0.000000e+00 0.000000e+00 0
0.000000e+00 0.000000e+00 0
0.000000e+00 0.000000e+00 0
0.000000e+00 0.000000e+00 0
0.000000e+00 0.000000e+00 0
0.000000e+00 0.000000e+00 0
-6.407035e-14 0.000000e+00 0
2.970339e+01 0.000000e+00 0
6.407035e-14 0.000000e+00 0
-8.671742e-14 2.793802e+01 0
-8.303169e+01 5.841342e+01 0
-1.223437e+02 7.591515e+01 0
-1.225702e+02 8.712939e+01 0
-1.225576e+02 7.871963e+01 0
-1.114442e+02 6.700676e+01 0
-6.555066e+01 4.990039e+01 0
-3.337140e+01 9.923607e+00 0
0.000000e+00 -2.000000e+01 0
1.567912e+01 -1.000000e+01 0
2.286508e+01 0.000000e+00 0
0.000000e+00 0.000000e+00 0
-5.611127e-14 0.000000e+00 0
-3.665584e+01 1.486342e+01 0
-5.071614e+01 1.409464e+01 0
-5.051176e+01 -7.424044e+00 0
-4.031775e+01 -1.605347e+01 0
-2.529688e+01 -9.398208e+00 0
-2.295461e-14 0.000000e+00 0
0.000000e+00 0.000000e+00 0
2.738030e-13 0.000000e+00 0
3.173416e+01 -1.000000e+01 0
0.000000e+00 -2.000000e+01 0
-3.267978e+01 -4.133889e+01 0
-6.097999e+01 -5.855522e+01 0
-7.226429e+01 -5.396717e+01 0
-7.820777e+01 -5.534744e+01 0
-7.708127e+01 -5.690408e+01 0
-6.988709e+01 -5.666638e+01 0
-5.625071e+01 -5.028825e+01 0
-2.615025e+01 -2.192935e+01 0
0.000000e+00 0.000000e+00 0
1.794408e+01 0.000000e+00 0
0.000000e+00 0.000000e+00 0
0.000000e+00 0.000000e+00 0
0.000000e+00 0.000000e+00 0
0.000000e+00 0.000000e+00 0
0.000000e+00 0.000000e+00 0
0.000000e+00 0.000000e+00 0
0.000000e+00 0.000000e+00 0
0.000000e+00 0.000000e+00 0
0.000000e+00 0.000000e+00 0
0.000000e+00 0.000000e+00 0
0.000000e+00 0.000000e+00 0
0.000000e+00 0.000000e+00 0
0.000000e+00 0.000000e+00 0
0.000000e+00 0.000000e+00 0
0.000000e+00 0.000000e+00 0
0.000000e+00 0.000000e+00 0
0.000000e+00 0.000000e+00 0
0.000000e+00 0.000000e+00 0
0.000000e+00 0.000000e+00 0
0.000000e+00 0.000000e+00 0
0.000000e+00 0.000000e+00 0
0.000000e+00 0.000000e+00 0
0.000000e+00 0.000000e+00 0
0.000000e+00 0.000000e+00 0
0.000000e+00 0.000000e+00 0
0.000000e+00 0.000000e+00 0
0.000000e+00 0.000000e+00 0
0.000000e+00 0.000000e+00 0
0.000000e+00 0.000000e+00 0
0.000000e+00 0.000000e+00 0
0.000000e+00 0.000000e+00 0
0.000000e+00 0.000000e+00 0
0.000000e+00 0.000000e+00 0
1.359186e-28 0.000000e+00 0
-6.121230e-14 0.000000e+00 0
-5.395634e+01 4.003318e+01 0
-1.016044e+02 8.232060e+01 0
-1.179631e+02 8.350883e+01 0
-1.260012e+02 8.533875e+01 0
-1.130875e+02 8.344737e+01 0
-9.575471e+01 6.709760e+01 0
-5.299320e+01 1.776756e+01 0
3.825769e-14 -1.000000e+01 0
0.000000e+00 -2.000000e+01 0
0.000000e+00 -2.000000e+01 0
0.000000e+00 0.000000e+00 0
-4.845973e-14 0.000000e+00 0
-3.752099e+01 2.427143e+01 0
-6.505110e+01 3.699876e+01 0
-8.105919e+01 2.520758e+01 0
-7.908210e+01 1.227036e+01 0
-7.905386e+01 -1.067851e+01 0
-7.163448e+01 -2.872257e+01 0
-5.947331e+01 -3.314357e+01 0
-3.728201e+01 -2.721833e+01 0
-1.856534e+01 -1.232870e+01 0
1.427313e-13 0.000000e+00 0
1.654277e+01 0.000000e+00 0
0.000000e+00 -1.000000e+01 0
-2.000901e-13 -2.000000e+01 0
-2.319073e+01 -2.832756e+01 0
-4.970641e+01 -3.918291e+01 0
-6.569771e+01 -4.766139e+01 0
-7.435945e+01 -5.560287e+01 0
-7.983085e+01 -6.157359e+01 0
-7.674447e+01 -6.333331e+01 0
-6.801818e+01 -5.458777e+01 0
-3.791770e+01 -2.403122e+01 0
-3.825769e-14 0.000000e+00 0
0.000000e+00 0.000000e+00 0
0.000000e+00 0.000000e+00 0
0.000000e+00 0.000000e+00 0
0.000000e+00 0.000000e+00 0
0.000000e+00 0.000000e+00 0
0.000000e+00 0.000000e+00 0
0.000000e+00 0.000000e+00 0
0.000000e+00 0.000000e+00 0
0.000000e+00 0.000000e+00 0
0.000000e+00 0.000000e+00 0
0.000000e+00 0.000000e+00 0
0.000000e+00 0.000000e+00 0
0.000000e+00 0.000000e+00 0
0.000000e+00 0.000000e+00 0
0.000000e+00 0.000000e+00 0
0.000000e+00 0.000000e+00 0
0.000000e+00 0.000000e+00 0
0.000000e+00 0.000000e+00 0
0.000000e+00 0.000000e+00 0
0.000000e+00 0.000000e+00 0
0.000000e+00 0.000000e+00 0
0.000000e+00 0.000000e+00 0
0.000000e+00 0.000000e+00 0
0.000000e+00 0.000000e+00 0
0.000000e+00 0.000000e+00 0
0.000000e+00 0.000000e+00 0
0.000000e+00 0.000000e+00 0