<?xml version="1.0"?>
<VTKFile type="StructuredGrid">
<StructuredGrid WholeExtent="0 68 0 35 0 0 ">
<Piece Extent="0 68 0 35 0 0 ">
<Points>
<DataArray type="Float64" format="ascii" NumberOfComponents="3">
0.000000e+00 0.000000e+00 0.000000e+00
1.029412e-01 0.000000e+00 0.000000e+00
2.058824e-01 0.000000e+00 0.000000e+00
3.088235e-01 0.000000e+00 0.000000e+00
4.117647e-01 0.000000e+00 0.000000e+00
5.147059e-01 0.000000e+00 0.000000e+00
6.176471e-01 0.000000e+00 0.000000e+00
7.205882e-01 0.000000e+00 0.000000e+00
8.235294e-01 0.000000e+00 0.000000e+00
9.264706e-01 0.000000e+00 0.000000e+00
1.029412e+00 0.000000e+00 0.000000e+00
1.132353e+00 0.000000e+00 0.000000e+00
1.235294e+00 0.000000e+00 0.000000e+00
1.338235e+00 0.000000e+00 0.000000e+00
1.441176e+00 0.000000e+00 0.000000e+00
1.544118e+00 0.000000e+00 0.000000e+00
1.647059e+00 0.000000e+00 0.000000e+00
1.750000e+00 0.000000e+00 0.000000e+00
1.852941e+00 0.000000e+00 0.000000e+00
1.955882e+00 0.000000e+00 0.000000e+00
2.058824e+00 0.000000e+00 0.000000e+00
2.161765e+00 0.000000e+00 0.000000e+00
2.264706e+00 0.000000e+00 0.000000e+00
2.367647e+00 0.000000e+00 0.000000e+00
2.470588e+00 0.000000e+00 0.000000e+00
2.573529e+00 0.000000e+00 0.000000e+00
2.676471e+00 0.000000e+00 0.000000e+00
2.779412e+00 0.000000e+00 0.000000e+00
2.882353e+00 0.000000e+00 0.000000e+00
2.985294e+00 0.000000e+00 0.000000e+00
3.088235e+00 0.000000e+00 0.000000e+00
3.191176e+00 0.000000e+00 0.000000e+00
3.294118e+00 0.000000e+00 0.000000e+00
3.397059e+00 0.000000e+00 0.000000e+00
3.500000e+00 0.000000e+00 0.000000e+00
3.602941e+00 0.000000e+00 0.000000e+00
3.705882e+00 0.000000e+00 0.000000e+00
3.808824e+00 0.000000e+00 0.000000e+00
3.911765e+00 0.000000e+00 0.000000e+00
4.014706e+00 0.000000e+00 0.000000e+00
4.117647e+00 0.000000e+00 0.000000e+00
4.220588e+00 0.000000e+00 0.000000e+00
4.323529e+00 0.000000e+00 0.000000e+00
4.426471e+00 0.000000e+00 0.000000e+00
4.529412e+00 0.000000e+00 0.000000e+00
4.632353e+00 0.000000e+00 0.000000e+00
4.735294e+00 0.000000e+00 0.000000e+00
4.838235e+00 0.000000e+00 0.000000e+00
4.941176e+00 0.000000e+00 0.000000e+00
5.044118e+00 0.000000e+00 0.000000e+00
5.147059e+00 0.000000e+00 0.000000e+00
5.250000e+00 0.000000e+00 0.000000e+00
5.352941e+00 0.000000e+00 0.000000e+00
5.455882e+00 0.000000e+00 0.000000e+00
5.558824e+00 0.000000e+00 0.000000e+00
5.661765e+00 0.000000e+00 0.000000e+00
5.764706e+00 0.000000e+00 0.000000e+00
5.867647e+00 0.000000e+00 0.000000e+00
5.970588e+00 0.000000e+00 0.000000e+00
6.073529e+00 0.000000e+00 0.000000e+00
6.176471e+00 0.000000e+00 0.000000e+00
6.279412e+00 0.000000e+00 0.000000e+00
6.382353e+00 0.000000e+00 0.000000e+00
6.485294e+00 0.000000e+00 0.000000e+00
6.588235e+00 0.000000e+00 0.000000e+00
6.691176e+00 0.000000e+00 0.000000e+00
6.794118e+00 0.000000e+00 0.000000e+00
6.897059e+00 0.000000e+00 0.000000e+00
7.000000e+00 0.000000e+00 0.000000e+00
0.000000e+00 1.057143e-01 0.000000e+00
1.029412e-01 1.057143e-01 0.000000e+00
2.058824e-01 1.057143e-01 0.000000e+00
3.088235e-01 1.057143e-01 0.000000e+00
4.117647e-01 1.057143e-01 0.000000e+00
5.147059e-01 1.057143e-01 0.000000e+00
6.176471e-01 1.057143e-01 0.000000e+00
7.205882e-01 1.057143e-01 0.000000e+00
8.235294e-01 1.057143e-01 0.000000e+00
9.264706e-01 1.057143e-01 0.000000e+00
1.029412e+00 1.057143e-01 0.000000e+00
1.132353e+00 1.057143e-01 0.000000e+00
1.235294e+00 1.057143e-01 0.000000e+00
1.338235e+00 1.057143e-01 0.000000e+00
1.441176e+00 1.057143e-01 0.000000e+00
1.544118e+00 1.057143e-01 0.000000e+00
1.647059e+00 1.057143e-01 0.000000e+00
1.750000e+00 1.057143e-01 0.000000e+00
1.852941e+00 1.057143e-01 0.000000e+00
1.955882e+00 1.057143e-01 0.000000e+00
2.058824e+00 1.057143e-01 0.000000e+00
2.161765e+00 1.057143e-01 0.000000e+00
2.264706e+00 1.057143e-01 0.000000e+00
2.367647e+00 1.057143e-01 0.000000e+00
2.470588e+00 1.057143e-01 0.000000e+00
2.573529e+00 1.057143e-01 0.000000e+00
2.676471e+00 1.057143e-01 0.000000e+00
2.779412e+00 1.057143e-01 0.000000e+00
2.882353e+00 1.057143e-01 0.000000e+00
2.985294e+00 1.057143e-01 0.000000e+00
3.088235e+00 1.057143e-01 0.000000e+00
3.191176e+00 1.057143e-01 0.000000e+00
3.294118e+00 1.057143e-01 0.000000e+00
3.397059e+00 1.057143e-01 0.000000e+00
3.500000e+00 1.057143e-01 0.000000e+00
3.602941e+00 1.057143e-01 0.000000e+00
3.705882e+00 1.057143e-01 0.000000e+00
3.808824e+00 1.057143e-01 0.000000e+00
3.911765e+00 1.057143e-01 0.000000e+00
4.014706e+00 1.057143e-01 0.000000e+00
4.117647e+00 1.057143e-01 0.000000e+00
4.220588e+00 1.057143e-01 0.000000e+00
4.323529e+00 1.057143e-01 0.000000e+00
4.426471e+00 1.057143e-01 0.000000e+00
4.529412e+00 1.057143e-01 0.000000e+00
4.632353e+00 1.057143e-01 0.000000e+00
4.735294e+00 1.057143e-01 0.000000e+00
4.838235e+00 1.057143e-01 0.000000e+00
4.941176e+00 1.057143e-01 0.000000e+00
5.044118e+00 1.057143e-01 0.000000e+00
5.147059e+00 1.057143e-01 0.000000e+00
5.250000e+00 1.057143e-01 0.000000e+00
5.352941e+00 1.057143e-01 0.000000e+00
5.455882e+00 1.057143e-01 0.000000e+00
5.558824e+00 1.057143e-01 0.000000e+00
5.661765e+00 1.057143e-01 0.000000e+00
5.764706e+00 1.057143e-01 0.000000e+00
5.867647e+00 1.057143e-01 0.000000e+00
5.970588e+00 1.057143e-01 0.000000e+00
6.073529e+00 1.057143e-01 0.000000e+00
6.176471e+00 1.057143e-01 0.000000e+00
6.279412e+00 1.057143e-01 0.000000e+00
6.382353e+00 1.057143e-01 0.000000e+00
6.485294e+00 1.057143e-01 0.000000e+00
6.588235e+00 1.057143e-01 0.000000e+00
6.691176e+00 1.057143e-01 0.000000e+00
6.794118e+00 1.057143e-01 0.000000e+00
6.897059e+00 1.057143e-01 0.000000e+00
7.000000e+00 1.057143e-01 0.000000e+00
0.000000e+00 2.114286e-01 0.000000e+00
1.029412e-01 2.114286e-01 0.000000e+00
2.058824e-01 2.114286e-01 0.000000e+00
3.088235e-01 2.114286e-01 0.000000e+00
4.117647e-01 2.114286e-01 0.000000e+00
5.147059e-01 2.114286e-01 0.000000e+00
6.176471e-01 2.114286e-01 0.000000e+00
7.205882e-01 2.114286e-01 0.000000e+00
8.235294e-01 2.114286e-01 0.000000e+00
9.264706e-01 2.114286e-01 0.000000e+00
1.029412e+00 2.114286e-01 0.000000e+00
1.132353e+00 2.114286e-01 0.000000e+00
1.235294e+00 2.114286e-01 0.000000e+00
1.338235e+00 2.114286e-01 0.000000e+00
1.441176e+00 2.114286e-01 0.000000e+00
1.544118e+00 2.114286e-01 0.000000e+00
1.647059e+00 2.114286e-01 0.000000e+00
1.750000e+00 2.114286e-01 0.000000e+00
1.852941e+00 2.114286e-01 0.000000e+00
1.955882e+00 2.114286e-01 0.000000e+00
2.058824e+00 2.114286e-01 0.000000e+00
2.161765e+00 2.114286e-01 0.000000e+00
2.264706e+00 2.114286e-01 0.000000e+00
2.367647e+00 2.114286e-01 0.000000e+00
2.470588e+00 2.114286e-01 0.000000e+00
2.573529e+00 2.114286e-01 0.000000e+00
2.676471e+00 2.114286e-01 0.000000e+00
2.779412e+00 2.114286e-01 0.000000e+00
2.882353e+00 2.114286e-01 0.000000e+00
2.985294e+00 2.114286e-01 0.000000e+00
3.088235e+00 2.114286e-01 0.000000e+00
3.191176e+00 2.114286e-01 0.000000e+00
3.294118e+00 2.114286e-01 0.000000e+00
3.397059e+00 2.114286e-01 0.000000e+00
3.500000e+00 2.114286e-01 0.000000e+00
3.602941e+00 2.114286e-01 0.000000e+00
3.705882e+00 2.114286e-01 0.000000e+00
3.808824e+00 2.114286e-01 0.000000e+00
3.911765e+00 2.114286e-01 0.000000e+00
4.014706e+00 2.114286e-01 0.000000e+00
4.117647e+00 2.114286e-01 0.000000e+00
4.220588e+00 2.114286e-01 0.000000e+00
4.323529e+00 2.114286e-01 0.000000e+00
4.426471e+00 2.114286e-01 0.000000e+00
4.529412e+00 2.114286e-01 0.000000e+00
4.632353e+00 2.114286e-01 0.000000e+00
4.735294e+00 2.114286e-01 0.000000e+00
4.838235e+00 2.114286e-01 0.000000e+00
4.941176e+00 2.114286e-01 0.000000e+00
5.044118e+00 2.114286e-01 0.000000e+00
5.147059e+00 2.114286e-01 0.000000e+00
5.250000e+00 2.114286e-01 0.000000e+00
5.352941e+00 2.114286e-01 0.000000e+00
5.455882e+00 2.114286e-01 0.000000e+00
5.558824e+00 2.114286e-01 0.000000e+00
5.661765e+00 2.114286e-01 0.000000e+00
5.764706e+00 2.114286e-01 0.000000e+00
5.867647e+00 2.114286e-01 0.000000e+00
5.970588e+00 2.114286e-01 0.000000e+00
6.073529e+00 2.114286e-01 0.000000e+00
6.176471e+00 2.114286e-01 0.000000e+00
6.279412e+00 2.114286e-01 0.000000e+00
6.382353e+00 2.114286e-01 0.000000e+00
6.485294e+00 2.114286e-01 0.000000e+00
6.588235e+00 2.114286e-01 0.000000e+00
6.691176e+00 2.114286e-01 0.000000e+00
6.794118e+00 2.114286e-01 0.000000e+00
6.897059e+00 2.114286e-01 0.000000e+00
7.000000e+00 2.114286e-01 0.000000e+00
0.000000e+00 3.171429e-01 0.000000e+00
1.029412e-01 3.171429e-01 0.000000e+00
2.058824e-01 3.171429e-01 0.000000e+00
3.088235e-01 3.171429e-01 0.000000e+00
4.117647e-01 3.171429e-01 0.000000e+00
5.147059e-01 3.171429e-01 0.000000e+00
6.176471e-01 3.171429e-01 0.000000e+00
7.205882e-01 3.171429e-01 0.000000e+00
8.235294e-01 3.171429e-01 0.000000e+00
9.264706e-01 3.171429e-01 0.000000e+00
1.029412e+00 3.171429e-01 0.000000e+00
1.132353e+00 3.171429e-01 0.000000e+00
1.235294e+00 3.171429e-01 0.000000e+00
1.338235e+00 3.171429e-01 0.000000e+00
1.441176e+00 3.171429e-01 0.000000e+00
1.544118e+00 3.171429e-01 0.000000e+00
1.647059e+00 3.171429e-01 0.000000e+00
1.750000e+00 3.171429e-01 0.000000e+00
1.852941e+00 3.171429e-01 0.000000e+00
1.955882e+00 3.171429e-01 0.000000e+00
2.058824e+00 3.171429e-01 0.000000e+00
2.161765e+00 3.171429e-01 0.000000e+00
2.264706e+00 3.171429e-01 0.000000e+00
2.367647e+00 3.171429e-01 0.000000e+00
2.470588e+00 3.171429e-01 0.000000e+00
2.573529e+00 3.171429e-01 0.000000e+00
2.676471e+00 3.171429e-01 0.000000e+00
2.779412e+00 3.171429e-01 0.000000e+00
2.882353e+00 3.171429e-01 0.000000e+00
2.985294e+00 3.171429e-01 0.000000e+00
3.088235e+00 3.171429e-01 0.000000e+00
3.191176e+00 3.171429e-01 0.000000e+00
3.294118e+00 3.171429e-01 0.000000e+00
3.397059e+00 3.171429e-01 0.000000e+00
3.500000e+00 3.171429e-01 0.000000e+00
3.602941e+00 3.171429e-01 0.000000e+00
3.705882e+00 3.171429e-01 0.000000e+00
3.808824e+00 3.171429e-01 0.000000e+00
3.911765e+00 3.171429e-01 0.000000e+00
4.014706e+00 3.171429e-01 0.000000e+00
4.117647e+00 3.171429e-01 0.000000e+00
4.220588e+00 3.171429e-01 0.000000e+00
4.323529e+00 3.171429e-01 0.000000e+00
4.426471e+00 3.171429e-01 0.000000e+00
[...]
<PointData>
<DataArray Name="Velocity" type="Float64" format="ascii" NumberOfComponents="3">
0.000000e+00 0.000000e+00 0
0.000000e+00 0.000000e+00 0
0.000000e+00 0.000000e+00 0
0.000000e+00 0.000000e+00 0
0.000000e+00 0.000000e+00 0
0.000000e+00 0.000000e+00 0
0.000000e+00 0.000000e+00 0
0.000000e+00 0.000000e+00 0
0.000000e+00 0.000000e+00 0
0.000000e+00 0.000000e+00 0
0.000000e+00 0.000000e+00 0
0.000000e+00 0.000000e+00 0
0.000000e+00 0.000000e+00 0
0.000000e+00 0.000000e+00 0
0.000000e+00 0.000000e+00 0
0.000000e+00 0.000000e+00 0
0.000000e+00 0.000000e+00 0
0.000000e+00 0.000000e+00 0
0.000000e+00 0.000000e+00 0
0.000000e+00 0.000000e+00 0
0.000000e+00 0.000000e+00 0
0.000000e+00 0.000000e+00 0
0.000000e+00 0.000000e+00 0
0.000000e+00 0.000000e+00 0
0.000000e+00 0.000000e+00 0
0.000000e+00 0.000000e+00 0
0.000000e+00 0.000000e+00 0
0.000000e+00 0.000000e+00 0
0.000000e+00 0.000000e+00 0
0.000000e+00 0.000000e+00 0
0.000000e+00 0.000000e+00 0
0.000000e+00 0.000000e+00 0
-1.148139e+01 0.000000e+00 0
0.000000e+00 0.000000e+00 0
0.000000e+00 0.000000e+00 0
-1.140975e-17 0.000000e+00 0
0.000000e+00 0.000000e+00 0
0.000000e+00 0.000000e+00 0
0.000000e+00 0.000000e+00 0
0.000000e+00 0.000000e+00 0
-2.873186e+01 0.000000e+00 0
0.000000e+00 0.000000e+00 0
0.000000e+00 0.000000e+00 0
0.000000e+00 0.000000e+00 0
0.000000e+00 0.000000e+00 0
0.000000e+00 0.000000e+00 0
0.000000e+00 0.000000e+00 0
0.000000e+00 0.000000e+00 0
0.000000e+00 0.000000e+00 0
0.000000e+00 0.000000e+00 0
0.000000e+00 0.000000e+00 0
0.000000e+00 0.000000e+00 0
0.000000e+00 0.000000e+00 0
0.000000e+00 0.000000e+00 0
0.000000e+00 0.000000e+00 0
0.000000e+00 0.000000e+00 0
0.000000e+00 0.000000e+00 0
0.000000e+00 0.000000e+00 0
0.000000e+00 0.000000e+00 0
0.000000e+00 0.000000e+00 0
0.000000e+00 0.000000e+00 0
0.000000e+00 0.000000e+00 0
0.000000e+00 0.000000e+00 0
0.000000e+00 0.000000e+00 0
0.000000e+00 0.000000e+00 0
0.000000e+00 0.000000e+00 0
0.000000e+00 0.000000e+00 0
0.000000e+00 0.000000e+00 0
0.000000e+00 0.000000e+00 0
0.000000e+00 0.000000e+00 0
0.000000e+00 0.000000e+00 0
0.000000e+00 0.000000e+00 0
0.000000e+00 0.000000e+00 0
0.000000e+00 0.000000e+00 0
0.000000e+00 0.000000e+00 0
0.000000e+00 0.000000e+00 0
0.000000e+00 0.000000e+00 0
0.000000e+00 0.000000e+00 0
0.000000e+00 0.000000e+00 0
0.000000e+00 0.000000e+00 0
0.000000e+00 0.000000e+00 0
0.000000e+00 0.000000e+00 0
0.000000e+00 0.000000e+00 0
0.000000e+00 0.000000e+00 0
0.000000e+00 0.000000e+00 0
0.000000e+00 0.000000e+00 0
0.000000e+00 0.000000e+00 0
0.000000e+00 0.000000e+00 0
0.000000e+00 0.000000e+00 0
0.000000e+00 0.000000e+00 0
0.000000e+00 0.000000e+00 0
0.000000e+00 0.000000e+00 0
0.000000e+00 0.000000e+00 0
0.000000e+00 0.000000e+00 0
0.000000e+00 0.000000e+00 0
0.000000e+00 0.000000e+00 0
0.000000e+00 0.000000e+00 0
0.000000e+00 0.000000e+00 0
0.000000e+00 0.000000e+00 0
-1.032294e+01 0.000000e+00 0
0.000000e+00 0.000000e+00 0
0.000000e+00 0.000000e+00 0
1.033140e+01 1.488895e+01 0
2.677926e+01 1.131011e+01 0
3.241193e+01 -1.122110e+01 0
3.710285e+01 -1.614770e+01 0
4.170479e+01 -1.637959e+01 0
4.356027e+01 -5.552063e+00 0
1.998144e+01 2.322083e+00 0
0.000000e+00 0.000000e+00 0
0.000000e+00 0.000000e+00 0
0.000000e+00 0.000000e+00 0
0.000000e+00 0.000000e+00 0
0.000000e+00 0.000000e+00 0
0.000000e+00 0.000000e+00 0
0.000000e+00 0.000000e+00 0
0.000000e+00 0.000000e+00 0
0.000000e+00 0.000000e+00 0
0.000000e+00 0.000000e+00 0
0.000000e+00 0.000000e+00 0
0.000000e+00 0.000000e+00 0
0.000000e+00 0.000000e+00 0
0.000000e+00 0.000000e+00 0
0.000000e+00 0.000000e+00 0
0.000000e+00 0.000000e+00 0
0.000000e+00 0.000000e+00 0
0.000000e+00 0.000000e+00 0
0.000000e+00 0.000000e+00 0
0.000000e+00 0.000000e+00 0
0.000000e+00 0.000000e+00 0
0.000000e+00 0.000000e+00 0
0.000000e+00 0.000000e+00 0
0.000000e+00 0.000000e+00 0
0.000000e+00 0.000000e+00 0
0.000000e+00 0.000000e+00 0
0.000000e+00 0.000000e+00 0
0.000000e+00 0.000000e+00 0
0.000000e+00 0.000000e+00 0
0.000000e+00 0.000000e+00 0
0.000000e+00 0.000000e+00 0
0.000000e+00 0.000000e+00 0
0.000000e+00 0.000000e+00 0
0.000000e+00 0.000000e+00 0
0.000000e+00 0.000000e+00 0
0.000000e+00 0.000000e+00 0
0.000000e+00 0.000000e+00 0
0.000000e+00 0.000000e+00 0
0.000000e+00 0.000000e+00 0
0.000000e+00 0.000000e+00 0
0.000000e+00 0.000000e+00 0
0.000000e+00 0.000000e+00 0
0.000000e+00 0.000000e+00 0
0.000000e+00 0.000000e+00 0
0.000000e+00 0.000000e+00 0
0.000000e+00 0.000000e+00 0
0.000000e+00 0.000000e+00 0
0.000000e+00 0.000000e+00 0
0.000000e+00 0.000000e+00 0
0.000000e+00 0.000000e+00 0
0.000000e+00 0.000000e+00 0
0.000000e+00 0.000000e+00 0
0.000000e+00 0.000000e+00 0
0.000000e+00 0.000000e+00 0
0.000000e+00 0.000000e+00 0
0.000000e+00 0.000000e+00 0
0.000000e+00 0.000000e+00 0
-7.223109e+00 0.000000e+00 0
0.000000e+00 0.000000e+00 0
2.550512e-15 0.000000e+00 0
6.594824e+00 5.355663e+00 0
3.304009e+01 -9.948353e+00 0
3.385576e+01 -1.880190e+01 0
5.875821e+01 -1.092251e+01 0
6.061388e+01 -1.388636e+01 0
5.457528e+01 -1.283618e+01 0
4.379859e+01 -9.932235e+00 0
3.119788e+01 1.374300e+00 0
2.902705e+01 1.135006e+01 0
4.837665e+01 1.489942e+01 0
1.781186e+01 8.481450e+00 0
0.000000e+00 0.000000e+00 0
-2.526372e+01 0.000000e+00 0
0.000000e+00 0.000000e+00 0
0.000000e+00 0.000000e+00 0
0.000000e+00 0.000000e+00 0
0.000000e+00 0.000000e+00 0
0.000000e+00 0.000000e+00 0
0.000000e+00 0.000000e+00 0
0.000000e+00 0.000000e+00 0
0.000000e+00 0.000000e+00 0
0.000000e+00 0.000000e+00 0
0.000000e+00 0.000000e+00 0
0.000000e+00 0.000000e+00 0
0.000000e+00 0.000000e+00 0
0.000000e+00 0.000000e+00 0
0.000000e+00 0.000000e+00 0
0.000000e+00 0.000000e+00 0
0.000000e+00 0.000000e+00 0
0.000000e+00 0.000000e+00 0
0.000000e+00 0.000000e+00 0
0.000000e+00 0.000000e+00 0
0.000000e+00 0.000000e+00 0
0.000000e+00 0.000000e+00 0
0.000000e+00 0.000000e+00 0
0.000000e+00 0.000000e+00 0
0.000000e+00 0.000000e+00 0
0.000000e+00 0.000000e+00 0
0.000000e+00 0.000000e+00 0
0.000000e+00 0.000000e+00 0
0.000000e+00 0.000000e+00 0
0.000000e+00 0.000000e+00 0
0.000000e+00 0.000000e+00 0
0.000000e+00 0.000000e+00 0
0.000000e+00 0.000000e+00 0
0.000000e+00 0.000000e+00 0
0.000000e+00 0.000000e+00 0
0.000000e+00 0.000000e+00 0
0.000000e+00 0.000000e+00 0
0.000000e+00 0.000000e+00 0
0.000000e+00 0.000000e+00 0
0.000000e+00 0.000000e+00 0
0.000000e+00 0.000000e+00 0
0.000000e+00 0.000000e+00 0
0.000000e+00 0.000000e+00 0
0.000000e+00 0.000000e+00 0
0.000000e+00 0.000000e+00 0
0.000000e+00 0.000000e+00 0
0.000000e+00 0.000000e+00 0
0.000000e+00 0.000000e+00 0
0.000000e+00 0.000000e+00 0
0.000000e+00 0.000000e+00 0
0.000000e+00 0.000000e+00 0
0.000000e+00 0.000000e+00 0
0.000000e+00 0.000000e+00 0
0.000000e+00 2.020587e-15 0
-3.825769e-15 -1.754106e-15 0
2.322541e+00 6.261916e+00 0
2.419868e+01 -9.608024e+00 0
1.659048e+01 -2.622386e+01 0
3.339979e+01 -2.802011e+01 0
3.114834e+01 -2.903993e+01 0
3.513068e+01 -1.755013e+01 0
2.261919e+01 -8.311593e+00 0
9.627889e+00 -2.700811e-01 0
-2.928041e+00 6.232548e+00 0
-1.362391e+01 8.218044e+00 0
-1.480992e+01 -9.679526e-01 0
4.011046e+00 5.192584e+00 0
4.704383e+00 2.060115e+01 0
-3.199589e+00 1.058999e+01 0
-1.530307e-14 -1.377344e-15 0
0.000000e+00 4.018309e-16 0
0.000000e+00 0.000000e+00 0
0.000000e+00 0.000000e+00 0
0.000000e+00 0.000000e+00 0
0.000000e+00 0.000000e+00 0
0.000000e+00 0.000000e+00 0
0.000000e+00 0.000000e+00 0
0.000000e+00 0.000000e+00 0
0.000000e+00 0.000000e+00 0
0.000000e+00 0.000000e+00 0
0.000000e+00 0.000000e+00 0
0.000000e+00 0.000000e+00 0
0.000000e+00 0.000000e+00 0
0.000000e+00 0.000000e+00 0
0.000000e+00 0.000000e+00 0
0.000000e+00 0.000000e+00 0
0.000000e+00 0.000000e+00 0
0.000000e+00 0.000000e+00 0
0.000000e+00 0.000000e+00 0
0.000000e+00 0.000000e+00 0
0.000000e+00 0.000000e+00 0
0.000000e+00 0.000000e+00 0
0.000000e+00 0.000000e+00 0
0.000000e+00 0.000000e+00 0
0.000000e+00 0.000000e+00 0
0.000000e+00 0.000000e+00 0
0.000000e+00 0.000000e+00 0
0.000000e+00 0.000000e+00 0
0.000000e+00 0.000000e+00 0
0.000000e+00 0.000000e+00 0
0.000000e+00 0.000000e+00 0
0.000000e+00 0.000000e+00 0
0.000000e+00 0.000000e+00 0
0.000000e+00 0.000000e+00 0
0.000000e+00 0.000000e+00 0
0.000000e+00 0.000000e+00 0
0.000000e+00 0.000000e+00 0
0.000000e+00 0.000000e+00 0
0.000000e+00 0.000000e+00 0
0.000000e+00 0.000000e+00 0
0.000000e+00 0.000000e+00 0
0.000000e+00 0.000000e+00 0
0.000000e+00 0.000000e+00 0
0.000000e+00 0.000000e+00 0
0.000000e+00 0.000000e+00 0
0.000000e+00 0.000000e+00 0
0.000000e+00 0.000000e+00 0
0.000000e+00 0.000000e+00 0
0.000000e+00 0.000000e+00 0
0.000000e+00 0.000000e+00 0
-7.177885e+00 0.000000e+00 0
0.000000e+00 0.000000e+00 0
-3.929763e+00 7.695930e+00 0
1.193715e+01 -6.680967e+00 0
5.026347e+00 -2.031981e+01 0
1.786049e+01 -1.816950e+01 0
3.530375e+00 -2.481790e+01 0
-1.035042e+01 -2.627010e+01 0
-3.144009e+01 -2.195554e+01 0
-2.186474e+01 -3.544992e+00 0
-2.855376e+01 1.091664e+01 0
-3.130988e+01 1.200751e+01 0
-3.017304e+01 1.254919e+01 0
-2.660241e+01 1.217432e+01 0
-4.183941e+01 -8.166599e+00 0
-2.552457e+01 -6.551065e+00 0
-1.990571e+01 7.123778e+00 0
1.184421e+01 -6.715956e+00 0
5.026977e+01 -5.245970e+00 0
3.812093e+01 1.530477e+00 0
0.000000e+00 0.000000e+00 0
-8.379006e+00 0.000000e+00 0
-1.829325e+01 0.000000e+00 0
0.000000e+00 0.000000e+00 0
0.000000e+00 0.000000e+00 0
0.000000e+00 0.000000e+00 0
0.000000e+00 0.000000e+00 0
0.000000e+00 0.000000e+00 0
0.000000e+00 0.000000e+00 0
0.000000e+00 0.000000e+00 0
0.000000e+00 0.000000e+00 0
0.000000e+00 0.000000e+00 0
0.000000e+00 0.000000e+00 0
0.000000e+00 0.000000e+00 0
0.000000e+00 0.000000e+00 0
0.000000e+00 0.000000e+00 0
0.000000e+00 0.000000e+00 0
0.000000e+00 0.000000e+00 0
0.000000e+00 0.000000e+00 0
0.000000e+00 0.000000e+00 0
0.000000e+00 0.000000e+00 0
0.000000e+00 0.000000e+00 0
0.000000e+00 0.000000e+00 0
0.000000e+00 0.000000e+00 0
0.000000e+00 0.000000e+00 0
0.000000e+00 0.000000e+00 0
0.000000e+00 0.000000e+00 0
0.000000e+00 0.000000e+00 0
0.000000e+00 0.000000e+00 0
0.000000e+00 0.000000e+00 0
0.000000e+00 0.000000e+00 0
0.000000e+00 0.000000e+00 0
0.000000e+00 0.000000e+00 0
0.000000e+00 0.000000e+00 0
0.000000e+00 0.000000e+00 0
0.000000e+00 0.000000e+00 0
0.000000e+00 0.000000e+00 0
0.000000e+00 0.000000e+00 0
0.000000e+00 0.000000e+00 0
0.000000e+00 0.000000e+00 0
0.000000e+00 0.000000e+00 0
0.000000e+00 0.000000e+00 0
0.000000e+00 0.000000e+00 0
0.000000e+00 0.000000e+00 0
0.000000e+00 0.000000e+00 0
0.000000e+00 0.000000e+00 0
0.000000e+00 0.000000e+00 0
0.000000e+00 0.000000e+00 0
0.000000e+00 0.000000e+00 0
-7.651537e-15 0.000000e+00 0
-1.886051e+00 6.867050e+00 0
-6.150900e-01 5.348180e+00 0
1.087402e+01 -1.417034e+01 0
3.636768e+00 -2.024973e+01 0
-2.229303e+00 -9.434155e+00 0
-1.868614e+01 1.380868e+00 0
-2.590888e+00 6.522067e+00 0
-3.906406e+01 3.305302e+00 0
-2.550512e-14 0.000000e+00 0
-2.390586e-14 0.000000e+00 0
-1.530307e-14 0.000000e+00 0
-1.147731e-14 0.000000e+00 0
-5.101025e-15 0.000000e+00 0
-1.798388e+01 -2.227856e+01 0
-1.361638e+01 -1.874552e+01 0
-1.641137e+01 -1.919224e+01 0
1.340827e+01 -4.008882e+01 0
2.246999e+01 -2.965836e+01 0
4.467427e+01 1.610210e+01 0
4.712800e+00 2.839692e+01 0
-9.224010e-15 0.000000e+00 0
-2.040410e-14 0.000000e+00 0
-1.496739e-13 0.000000e+00 0
-1.734742e+01 0.000000e+00 0
0.000000e+00 0.000000e+00 0
0.000000e+00 0.000000e+00 0
0.000000e+00 0.000000e+00 0
0.000000e+00 0.000000e+00 0
0.000000e+00 0.000000e+00 0
0.000000e+00 0.000000e+00 0
0.000000e+00 0.000000e+00 0
0.000000e+00 0.000000e+00 0
0.000000e+00 0.000000e+00 0
0.000000e+00 0.000000e+00 0
0.000000e+00 0.000000e+00 0
0.000000e+00 0.000000e+00 0
0.000000e+00 0.000000e+00 0
0.000000e+00 0.000000e+00 0
0.000000e+00 0.000000e+00 0
0.000000e+00 0.000000e+00 0
0.000000e+00 0.000000e+00 0
0.000000e+00 0.000000e+00 0
0.000000e+00 0.000000e+00 0
0.000000e+00 0.000000e+00 0
0.000000e+00 0.000000e+00 0
0.000000e+00 0.000000e+00 0
0.000000e+00 0.000000e+00 0
0.000000e+00 0.000000e+00 0
0.000000e+00 0.000000e+00 0
0.000000e+00 0.000000e+00 0
0.000000e+00 0.000000e+00 0
0.000000e+00 0.000000e+00 0
0.000000e+00 0.000000e+00 0
0.000000e+00 0.000000e+00 0
0.000000e+00 0.000000e+00 0
0.000000e+00 0.000000e+00 0
0.000000e+00 0.000000e+00 0
0.000000e+00 0.000000e+00 0
0.000000e+00 0.000000e+00 0
0.000000e+00 0.000000e+00 0
0.000000e+00 0.000000e+00 0
0.000000e+00 0.000000e+00 0
0.000000e+00 0.000000e+00 0
0.000000e+00 0.000000e+00 0
0.000000e+00 0.000000e+00 0
-8.089053e+00 0.000000e+00 0
0.000000e+00 0.000000e+00 0
-3.985739e+00 7.737357e+00 0
9.983960e+00 -4.640575e+00 0
-3.510578e+00 -1.118846e+01 0
2.501959e+00 -3.588961e+00 0
-3.971788e+00 -1.240051e+01 0
-1.178572e+01 -8.220165e+00 0
1.056650e+01 3.394187e+00 0
-1.222086e+01 -6.007723e+00 0
-4.080820e-14 -1.000000e+01 0
0.000000e+00 0.000000e+00 0
2.613745e+01 0.000000e+00 0
3.229889e+01 0.000000e+00 0
2.127194e+01 0.000000e+00 0
5.234218e+00 0.000000e+00 0
4.644450e+00 0.000000e+00 0
0.000000e+00 0.000000e+00 0
7.651537e-15 -1.000000e+01 0
-9.613140e+00 -4.127367e+01 0
-1.368832e+01 -4.806963e+01 0
-4.528056e+01 -3.878313e+01 0
-3.437951e+01 7.940727e+00 0
3.652045e-01 5.451236e+01 0
2.243908e+01 1.305896e+01 0
1.816399e+01 -1.511939e+01 0
-3.133674e+00 -3.593883e+00 0
3.825769e-14 0.000000e+00 0
0.000000e+00 0.000000e+00 0
0.000000e+00 0.000000e+00 0
0.000000e+00 0.000000e+00 0
0.000000e+00 0.000000e+00 0
0.000000e+00 0.000000e+00 0
0.000000e+00 0.000000e+00 0
0.000000e+00 0.000000e+00 0
0.000000e+00 0.000000e+00 0
0.000000e+00 0.000000e+00 0
0.000000e+00 0.000000e+00 0
0.000000e+00 0.000000e+00 0
0.000000e+00 0.000000e+00 0
0.000000e+00 0.000000e+00 0
0.000000e+00 0.000000e+00 0
0.000000e+00 0.000000e+00 0
0.000000e+00 0.000000e+00 0
0.000000e+00 0.000000e+00 0
0.000000e+00 0.000000e+00 0
0.000000e+00 0.000000e+00 0
0.000000e+00 0.000000e+00 0
0.000000e+00 0.000000e+00 0
0.000000e+00 0.000000e+00 0
0.000000e+00 0.000000e+00 0
0.000000e+00 0.000000e+00 0
0.000000e+00 0.000000e+00 0
0.000000e+00 0.000000e+00 0
0.000000e+00 0.000000e+00 0
0.000000e+00 0.000000e+00 0
0.000000e+00 0.000000e+00 0
0.000000e+00 0.000000e+00 0
0.000000e+00 0.000000e+00 0
0.000000e+00 0.000000e+00 0
0.000000e+00 0.000000e+00 0
0.000000e+00 0.000000e+00 0
0.000000e+00 0.000000e+00 0
0.000000e+00 0.000000e+00 0
0.000000e+00 0.000000e+00 0
0.000000e+00 0.000000e+00 0
0.000000e+00 0.000000e+00 0
0.000000e+00 0.000000e+00 0
0.000000e+00 0.000000e+00 0
0.000000e+00 0.000000e+00 0
-6.928577e-01 6.626262e+00 0
-5.085749e-01 7.053910e+00 0
8.414853e+00 -7.735930e+00 0
1.088113e-01 -8.144116e+00 0
9.061494e-01 4.474029e+00 0
-1.076095e+01 -8.486987e-01 0
-1.271868e+01 -1.530327e+01 0
-5.611127e-14 -1.000000e+01 0
0.000000e+00 -2.000000e+01 0
-1.960062e+01 -2.000000e+01 0
5.146209e+00 0.000000e+00 0
0.000000e+00 0.000000e+00 0
2.729268e-16 0.000000e+00 0
0.000000e+00 0.000000e+00 0
0.000000e+00 0.000000e+00 0
0.000000e+00 0.000000e+00 0
-3.946027e+00 0.000000e+00 0
3.725561e+00 -2.000000e+01 0
0.000000e+00 -2.000000e+01 0
0.000000e+00 -1.000000e+01 0
-4.274451e+01 -3.420653e+01 0
-5.363178e+01 -3.220908e+01 0
-1.104750e+01 -2.682129e+00 0
1.964984e+01 8.005557e+00 0
3.634079e+00 1.815060e+00 0
1.136997e+00 -3.309232e+00 0
2.113940e+01 -7.177178e+00 0
5.925003e+00 -4.738016e+00 0
0.000000e+00 0.000000e+00 0
0.000000e+00 0.000000e+00 0
0.000000e+00 0.000000e+00 0
0.000000e+00 0.000000e+00 0
0.000000e+00 0.000000e+00 0
0.000000e+00 0.000000e+00 0
0.000000e+00 0.000000e+00 0
0.000000e+00 0.000000e+00 0
0.000000e+00 0.000000e+00 0
0.000000e+00 0.000000e+00 0
0.000000e+00 0.000000e+00 0
0.000000e+00 0.000000e+00 0
0.000000e+00 0.000000e+00 0
0.000000e+00 0.000000e+00 0
0.000000e+00 0.000000e+00 0
0.000000e+00 0.000000e+00 0
0.000000e+00 0.000000e+00 0
0.000000e+00 0.000000e+00 0
0.000000e+00 0.000000e+00 0
0.000000e+00 0.000000e+00 0
0.000000e+00 0.000000e+00 0
0.000000e+00 0.000000e+00 0
0.000000e+00 0.000000e+00 0
0.000000e+00 0.000000e+00 0
0.000000e+00 0.000000e+00 0
0.000000e+00 0.000000e+00 0
0.000000e+00 0.000000e+00 0
0.000000e+00 0.000000e+00 0
0.000000e+00 0.000000e+00 0
0.000000e+00 0.000000e+00 0
0.000000e+00 0.000000e+00 0
0.000000e+00 0.000000e+00 0
0.000000e+00 0.000000e+00 0
0.000000e+00 0.000000e+00 0
0.000000e+00 0.000000e+00 0
0.000000e+00 0.000000e+00 0
1.484233e-14 0.000000e+00 0
-6.880993e+00 0.000000e+00 0
-1.484233e-14 0.000000e+00 0
-3.411182e+00 6.260340e+00 0
1.156018e+01 -6.070203e+00 0
-1.641338e+00 -1.032024e+01 0
3.019229e+00 -8.545253e-02 0
-4.533795e+00 -6.614581e+00 0
-1.304091e+01 -4.820346e+00 0
1.486842e+01 6.227661e+00 0
-6.291839e-01 -3.470815e+00 0
0.000000e+00 -2.000000e+01 0
-1.678055e+01 -1.000000e+01 0
1.296916e-01 0.000000e+00 0
0.000000e+00 0.000000e+00 0
-1.083968e-14 0.000000e+00 0
-6.629388e+00 1.923738e+01 0
3.812101e+00 1.217435e+01 0
7.546399e+00 -1.963692e+01 0
5.286396e+00 -1.919529e+01 0
-6.161767e+00 -6.621390e+00 0
8.289165e-15 0.000000e+00 0
0.000000e+00 0.000000e+00 0
1.039917e-13 0.000000e+00 0
1.205280e+01 -1.000000e+01 0
0.000000e+00 -2.000000e+01 0
-1.269893e+01 -2.452318e+01 0
-7.747449e+00 -2.218417e+01 0
4.572908e+00 -3.461680e+00 0
4.582872e-01 2.446064e+00 0
6.265150e+00 -4.063819e+00 0
2.137811e+00 -9.602582e+00 0
5.532517e+00 -7.893962e+00 0
5.339803e+00 -6.019539e-01 0
0.000000e+00 0.000000e+00 0
-1.961587e+01 0.000000e+00 0
0.000000e+00 0.000000e+00 0
0.000000e+00 0.000000e+00 0
0.000000e+00 0.000000e+00 0
0.000000e+00 0.000000e+00 0
0.000000e+00 0.000000e+00 0
0.000000e+00 0.000000e+00 0
0.000000e+00 0.000000e+00 0
0.000000e+00 0.000000e+00 0
0.000000e+00 0.000000e+00 0
0.000000e+00 0.000000e+00 0
0.000000e+00 0.000000e+00 0
0.000000e+00 0.000000e+00 0
0.000000e+00 0.000000e+00 0
0.000000e+00 0.000000e+00 0
0.000000e+00 0.000000e+00 0
0.000000e+00 0.000000e+00 0
0.000000e+00 0.000000e+00 0
0.000000e+00 0.000000e+00 0
0.000000e+00 0.000000e+00 0
0.000000e+00 0.000000e+00 0
0.000000e+00 0.000000e+00 0
0.000000e+00 0.000000e+00 0
0.000000e+00 0.000000e+00 0
0.000000e+00 0.000000e+00 0
0.000000e+00 0.000000e+00 0
0.000000e+00 0.000000e+00 0
0.000000e+00 0.000000e+00 0
0.000000e+00 0.000000e+00 0
0.000000e+00 0.000000e+00 0
0.000000e+00 0.000000e+00 0
0.000000e+00 0.000000e+00 0
0.000000e+00 0.000000e+00 0
-3.437997e+00 0.000000e+00 0
-3.171434e-29 0.000000e+00 0
1.530307e-14 0.000000e+00 0
-2.072077e+00 5.496483e+00 0
-1.299772e+00 4.357246e+00 0
7.889676e+00 -9.263606e+00 0
3.083288e-01 -6.950990e+00 0
2.059215e+00 8.689265e+00 0
-8.029619e+00 7.419010e+00 0
-1.477425e+01 -1.009688e+01 0
-2.805564e-14 -1.000000e+01 0
0.000000e+00 -2.000000e+01 0
7.678355e-02 -2.000000e+01 0
3.312450e-16 0.000000e+00 0
-2.789623e-16 0.000000e+00 0
-4.427112e+00 1.605559e+01 0
1.991363e+00 5.275123e+00 0
-1.247781e+00 -1.339784e+01 0
2.352939e+01 -8.448719e+00 0
1.656998e+01 -5.509264e+00 0
-2.403779e+00 -7.346999e-01 0
6.465824e+00 -2.765081e+00 0
1.988431e+01 -1.152442e+01 0
8.571131e+00 -9.816110e+00 0
-1.835368e-14 0.000000e+00 0
-2.127218e+00 0.000000e+00 0
0.000000e+00 -1.000000e+01 0
-9.038255e-15 -2.000000e+01 0
-1.047547e+00 -1.805333e+01 0
9.866986e+00 -1.866119e+00 0
1.142997e+00 -1.371079e+00 0
5.211381e+00 -6.485569e+00 0
-5.448249e+00 -7.879338e+00 0
-4.366970e+00 -1.580591e+01 0
-3.133547e+00 -4.016030e+00 0
-4.944827e+00 2.837821e+00 0
4.080820e-14 0.000000e+00 0
0.000000e+00 0.000000e+00 0
0.000000e+00 0.000000e+00 0
0.000000e+00 0.000000e+00 0
0.000000e+00 0.000000e+00 0
0.000000e+00 0.000000e+00 0
0.000000e+00 0.000000e+00 0
0.000000e+00 0.000000e+00 0
0.000000e+00 0.000000e+00 0
0.000000e+00 0.000000e+00 0
0.000000e+00 0.000000e+00 0
0.000000e+00 0.000000e+00 0
0.000000e+00 0.000000e+00 0
0.000000e+00 0.000000e+00 0
0.000000e+00 0.000000e+00 0
0.000000e+00 0.000000e+00 0
0.000000e+00 0.000000e+00 0
0.000000e+00 0.000000e+00 0
0.000000e+00 0.000000e+00 0
0.000000e+00 0.000000e+00 0
0.000000e+00 0.000000e+00 0
0.000000e+00 0.000000e+00 0
0.000000e+00 0.000000e+00 0
0.000000e+00 0.000000e+00 0
0.000000e+00 0.000000e+00 0
0.000000e+00 0.000000e+00 0
0.000000e+00 0.000000e+00 0
0.000000e+00 0.000000e+00 0
0.000000e+00 0.000000e+00 0