<?xml version="1.0"?>
<VTKFile type="StructuredGrid">
<StructuredGrid WholeExtent="0 68 0 35 0 0 ">
<Piece Extent="0 68 0 35 0 0 ">
<Points>
<DataArray type="Float64" format="ascii" NumberOfComponents="3">
0.000000e+00 0.000000e+00 0.000000e+00
1.029412e-01 0.000000e+00 0.000000e+00
2.058824e-01 0.000000e+00 0.000000e+00
3.088235e-01 0.000000e+00 0.000000e+00
4.117647e-01 0.000000e+00 0.000000e+00
5.147059e-01 0.000000e+00 0.000000e+00
6.176471e-01 0.000000e+00 0.000000e+00
7.205882e-01 0.000000e+00 0.000000e+00
8.235294e-01 0.000000e+00 0.000000e+00
9.264706e-01 0.000000e+00 0.000000e+00
1.029412e+00 0.000000e+00 0.000000e+00
1.132353e+00 0.000000e+00 0.000000e+00
1.235294e+00 0.000000e+00 0.000000e+00
1.338235e+00 0.000000e+00 0.000000e+00
1.441176e+00 0.000000e+00 0.000000e+00
1.544118e+00 0.000000e+00 0.000000e+00
1.647059e+00 0.000000e+00 0.000000e+00
1.750000e+00 0.000000e+00 0.000000e+00
1.852941e+00 0.000000e+00 0.000000e+00
1.955882e+00 0.000000e+00 0.000000e+00
2.058824e+00 0.000000e+00 0.000000e+00
2.161765e+00 0.000000e+00 0.000000e+00
2.264706e+00 0.000000e+00 0.000000e+00
2.367647e+00 0.000000e+00 0.000000e+00
2.470588e+00 0.000000e+00 0.000000e+00
2.573529e+00 0.000000e+00 0.000000e+00
2.676471e+00 0.000000e+00 0.000000e+00
2.779412e+00 0.000000e+00 0.000000e+00
2.882353e+00 0.000000e+00 0.000000e+00
2.985294e+00 0.000000e+00 0.000000e+00
3.088235e+00 0.000000e+00 0.000000e+00
3.191176e+00 0.000000e+00 0.000000e+00
3.294118e+00 0.000000e+00 0.000000e+00
3.397059e+00 0.000000e+00 0.000000e+00
3.500000e+00 0.000000e+00 0.000000e+00
3.602941e+00 0.000000e+00 0.000000e+00
3.705882e+00 0.000000e+00 0.000000e+00
3.808824e+00 0.000000e+00 0.000000e+00
3.911765e+00 0.000000e+00 0.000000e+00
4.014706e+00 0.000000e+00 0.000000e+00
4.117647e+00 0.000000e+00 0.000000e+00
4.220588e+00 0.000000e+00 0.000000e+00
4.323529e+00 0.000000e+00 0.000000e+00
4.426471e+00 0.000000e+00 0.000000e+00
4.529412e+00 0.000000e+00 0.000000e+00
4.632353e+00 0.000000e+00 0.000000e+00
4.735294e+00 0.000000e+00 0.000000e+00
4.838235e+00 0.000000e+00 0.000000e+00
4.941176e+00 0.000000e+00 0.000000e+00
5.044118e+00 0.000000e+00 0.000000e+00
5.147059e+00 0.000000e+00 0.000000e+00
5.250000e+00 0.000000e+00 0.000000e+00
5.352941e+00 0.000000e+00 0.000000e+00
5.455882e+00 0.000000e+00 0.000000e+00
5.558824e+00 0.000000e+00 0.000000e+00
5.661765e+00 0.000000e+00 0.000000e+00
5.764706e+00 0.000000e+00 0.000000e+00
5.867647e+00 0.000000e+00 0.000000e+00
5.970588e+00 0.000000e+00 0.000000e+00
6.073529e+00 0.000000e+00 0.000000e+00
6.176471e+00 0.000000e+00 0.000000e+00
6.279412e+00 0.000000e+00 0.000000e+00
6.382353e+00 0.000000e+00 0.000000e+00
6.485294e+00 0.000000e+00 0.000000e+00
6.588235e+00 0.000000e+00 0.000000e+00
6.691176e+00 0.000000e+00 0.000000e+00
6.794118e+00 0.000000e+00 0.000000e+00
6.897059e+00 0.000000e+00 0.000000e+00
7.000000e+00 0.000000e+00 0.000000e+00
0.000000e+00 1.057143e-01 0.000000e+00
1.029412e-01 1.057143e-01 0.000000e+00
2.058824e-01 1.057143e-01 0.000000e+00
3.088235e-01 1.057143e-01 0.000000e+00
4.117647e-01 1.057143e-01 0.000000e+00
5.147059e-01 1.057143e-01 0.000000e+00
6.176471e-01 1.057143e-01 0.000000e+00
7.205882e-01 1.057143e-01 0.000000e+00
8.235294e-01 1.057143e-01 0.000000e+00
9.264706e-01 1.057143e-01 0.000000e+00
1.029412e+00 1.057143e-01 0.000000e+00
1.132353e+00 1.057143e-01 0.000000e+00
1.235294e+00 1.057143e-01 0.000000e+00
1.338235e+00 1.057143e-01 0.000000e+00
1.441176e+00 1.057143e-01 0.000000e+00
1.544118e+00 1.057143e-01 0.000000e+00
1.647059e+00 1.057143e-01 0.000000e+00
1.750000e+00 1.057143e-01 0.000000e+00
1.852941e+00 1.057143e-01 0.000000e+00
1.955882e+00 1.057143e-01 0.000000e+00
2.058824e+00 1.057143e-01 0.000000e+00
2.161765e+00 1.057143e-01 0.000000e+00
2.264706e+00 1.057143e-01 0.000000e+00
2.367647e+00 1.057143e-01 0.000000e+00
2.470588e+00 1.057143e-01 0.000000e+00
2.573529e+00 1.057143e-01 0.000000e+00
2.676471e+00 1.057143e-01 0.000000e+00
2.779412e+00 1.057143e-01 0.000000e+00
2.882353e+00 1.057143e-01 0.000000e+00
2.985294e+00 1.057143e-01 0.000000e+00
3.088235e+00 1.057143e-01 0.000000e+00
3.191176e+00 1.057143e-01 0.000000e+00
3.294118e+00 1.057143e-01 0.000000e+00
3.397059e+00 1.057143e-01 0.000000e+00
3.500000e+00 1.057143e-01 0.000000e+00
3.602941e+00 1.057143e-01 0.000000e+00
3.705882e+00 1.057143e-01 0.000000e+00
3.808824e+00 1.057143e-01 0.000000e+00
3.911765e+00 1.057143e-01 0.000000e+00
4.014706e+00 1.057143e-01 0.000000e+00
4.117647e+00 1.057143e-01 0.000000e+00
4.220588e+00 1.057143e-01 0.000000e+00
4.323529e+00 1.057143e-01 0.000000e+00
4.426471e+00 1.057143e-01 0.000000e+00
4.529412e+00 1.057143e-01 0.000000e+00
4.632353e+00 1.057143e-01 0.000000e+00
4.735294e+00 1.057143e-01 0.000000e+00
4.838235e+00 1.057143e-01 0.000000e+00
4.941176e+00 1.057143e-01 0.000000e+00
5.044118e+00 1.057143e-01 0.000000e+00
5.147059e+00 1.057143e-01 0.000000e+00
5.250000e+00 1.057143e-01 0.000000e+00
5.352941e+00 1.057143e-01 0.000000e+00
5.455882e+00 1.057143e-01 0.000000e+00
5.558824e+00 1.057143e-01 0.000000e+00
5.661765e+00 1.057143e-01 0.000000e+00
5.764706e+00 1.057143e-01 0.000000e+00
5.867647e+00 1.057143e-01 0.000000e+00
5.970588e+00 1.057143e-01 0.000000e+00
6.073529e+00 1.057143e-01 0.000000e+00
6.176471e+00 1.057143e-01 0.000000e+00
6.279412e+00 1.057143e-01 0.000000e+00
6.382353e+00 1.057143e-01 0.000000e+00
6.485294e+00 1.057143e-01 0.000000e+00
6.588235e+00 1.057143e-01 0.000000e+00
6.691176e+00 1.057143e-01 0.000000e+00
6.794118e+00 1.057143e-01 0.000000e+00
6.897059e+00 1.057143e-01 0.000000e+00
7.000000e+00 1.057143e-01 0.000000e+00
0.000000e+00 2.114286e-01 0.000000e+00
1.029412e-01 2.114286e-01 0.000000e+00
2.058824e-01 2.114286e-01 0.000000e+00
3.088235e-01 2.114286e-01 0.000000e+00
4.117647e-01 2.114286e-01 0.000000e+00
5.147059e-01 2.114286e-01 0.000000e+00
6.176471e-01 2.114286e-01 0.000000e+00
7.205882e-01 2.114286e-01 0.000000e+00
8.235294e-01 2.114286e-01 0.000000e+00
9.264706e-01 2.114286e-01 0.000000e+00
1.029412e+00 2.114286e-01 0.000000e+00
1.132353e+00 2.114286e-01 0.000000e+00
1.235294e+00 2.114286e-01 0.000000e+00
1.338235e+00 2.114286e-01 0.000000e+00
1.441176e+00 2.114286e-01 0.000000e+00
1.544118e+00 2.114286e-01 0.000000e+00
1.647059e+00 2.114286e-01 0.000000e+00
1.750000e+00 2.114286e-01 0.000000e+00
1.852941e+00 2.114286e-01 0.000000e+00
1.955882e+00 2.114286e-01 0.000000e+00
2.058824e+00 2.114286e-01 0.000000e+00
2.161765e+00 2.114286e-01 0.000000e+00
2.264706e+00 2.114286e-01 0.000000e+00
2.367647e+00 2.114286e-01 0.000000e+00
2.470588e+00 2.114286e-01 0.000000e+00
2.573529e+00 2.114286e-01 0.000000e+00
2.676471e+00 2.114286e-01 0.000000e+00
2.779412e+00 2.114286e-01 0.000000e+00
2.882353e+00 2.114286e-01 0.000000e+00
2.985294e+00 2.114286e-01 0.000000e+00
3.088235e+00 2.114286e-01 0.000000e+00
3.191176e+00 2.114286e-01 0.000000e+00
3.294118e+00 2.114286e-01 0.000000e+00
3.397059e+00 2.114286e-01 0.000000e+00
3.500000e+00 2.114286e-01 0.000000e+00
3.602941e+00 2.114286e-01 0.000000e+00
3.705882e+00 2.114286e-01 0.000000e+00
3.808824e+00 2.114286e-01 0.000000e+00
3.911765e+00 2.114286e-01 0.000000e+00
4.014706e+00 2.114286e-01 0.000000e+00
4.117647e+00 2.114286e-01 0.000000e+00
4.220588e+00 2.114286e-01 0.000000e+00
4.323529e+00 2.114286e-01 0.000000e+00
4.426471e+00 2.114286e-01 0.000000e+00
4.529412e+00 2.114286e-01 0.000000e+00
4.632353e+00 2.114286e-01 0.000000e+00
4.735294e+00 2.114286e-01 0.000000e+00
4.838235e+00 2.114286e-01 0.000000e+00
4.941176e+00 2.114286e-01 0.000000e+00
5.044118e+00 2.114286e-01 0.000000e+00
5.147059e+00 2.114286e-01 0.000000e+00
5.250000e+00 2.114286e-01 0.000000e+00
5.352941e+00 2.114286e-01 0.000000e+00
5.455882e+00 2.114286e-01 0.000000e+00
5.558824e+00 2.114286e-01 0.000000e+00
5.661765e+00 2.114286e-01 0.000000e+00
5.764706e+00 2.114286e-01 0.000000e+00
5.867647e+00 2.114286e-01 0.000000e+00
5.970588e+00 2.114286e-01 0.000000e+00
6.073529e+00 2.114286e-01 0.000000e+00
6.176471e+00 2.114286e-01 0.000000e+00
6.279412e+00 2.114286e-01 0.000000e+00
6.382353e+00 2.114286e-01 0.000000e+00
6.485294e+00 2.114286e-01 0.000000e+00
6.588235e+00 2.114286e-01 0.000000e+00
6.691176e+00 2.114286e-01 0.000000e+00
6.794118e+00 2.114286e-01 0.000000e+00
6.897059e+00 2.114286e-01 0.000000e+00
7.000000e+00 2.114286e-01 0.000000e+00
0.000000e+00 3.171429e-01 0.000000e+00
1.029412e-01 3.171429e-01 0.000000e+00
2.058824e-01 3.171429e-01 0.000000e+00
3.088235e-01 3.171429e-01 0.000000e+00
4.117647e-01 3.171429e-01 0.000000e+00
5.147059e-01 3.171429e-01 0.000000e+00
6.176471e-01 3.171429e-01 0.000000e+00
7.205882e-01 3.171429e-01 0.000000e+00
8.235294e-01 3.171429e-01 0.000000e+00
9.264706e-01 3.171429e-01 0.000000e+00
1.029412e+00 3.171429e-01 0.000000e+00
1.132353e+00 3.171429e-01 0.000000e+00
1.235294e+00 3.171429e-01 0.000000e+00
1.338235e+00 3.171429e-01 0.000000e+00
1.441176e+00 3.171429e-01 0.000000e+00
1.544118e+00 3.171429e-01 0.000000e+00
1.647059e+00 3.171429e-01 0.000000e+00
1.750000e+00 3.171429e-01 0.000000e+00
1.852941e+00 3.171429e-01 0.000000e+00
1.955882e+00 3.171429e-01 0.000000e+00
2.058824e+00 3.171429e-01 0.000000e+00
2.161765e+00 3.171429e-01 0.000000e+00
2.264706e+00 3.171429e-01 0.000000e+00
2.367647e+00 3.171429e-01 0.000000e+00
2.470588e+00 3.171429e-01 0.000000e+00
2.573529e+00 3.171429e-01 0.000000e+00
2.676471e+00 3.171429e-01 0.000000e+00
2.779412e+00 3.171429e-01 0.000000e+00
2.882353e+00 3.171429e-01 0.000000e+00
2.985294e+00 3.171429e-01 0.000000e+00
3.088235e+00 3.171429e-01 0.000000e+00
3.191176e+00 3.171429e-01 0.000000e+00
3.294118e+00 3.171429e-01 0.000000e+00
3.397059e+00 3.171429e-01 0.000000e+00
3.500000e+00 3.171429e-01 0.000000e+00
3.602941e+00 3.171429e-01 0.000000e+00
3.705882e+00 3.171429e-01 0.000000e+00
3.808824e+00 3.171429e-01 0.000000e+00
3.911765e+00 3.171429e-01 0.000000e+00
4.014706e+00 3.171429e-01 0.000000e+00
4.117647e+00 3.171429e-01 0.000000e+00
4.220588e+00 3.171429e-01 0.000000e+00
4.323529e+00 3.171429e-01 0.000000e+00
4.426471e+00 3.171429e-01 0.000000e+00
[...]
<PointData>
<DataArray Name="Velocity" type="Float64" format="ascii" NumberOfComponents="3">
0.000000e+00 0.000000e+00 0
0.000000e+00 0.000000e+00 0
0.000000e+00 0.000000e+00 0
0.000000e+00 0.000000e+00 0
0.000000e+00 0.000000e+00 0
0.000000e+00 0.000000e+00 0
0.000000e+00 0.000000e+00 0
0.000000e+00 0.000000e+00 0
0.000000e+00 0.000000e+00 0
0.000000e+00 0.000000e+00 0
0.000000e+00 0.000000e+00 0
0.000000e+00 0.000000e+00 0
0.000000e+00 0.000000e+00 0
0.000000e+00 0.000000e+00 0
0.000000e+00 0.000000e+00 0
0.000000e+00 0.000000e+00 0
0.000000e+00 0.000000e+00 0
0.000000e+00 0.000000e+00 0
0.000000e+00 0.000000e+00 0
0.000000e+00 0.000000e+00 0
0.000000e+00 0.000000e+00 0
0.000000e+00 0.000000e+00 0
0.000000e+00 0.000000e+00 0
0.000000e+00 0.000000e+00 0
0.000000e+00 0.000000e+00 0
0.000000e+00 0.000000e+00 0
0.000000e+00 0.000000e+00 0
0.000000e+00 0.000000e+00 0
0.000000e+00 0.000000e+00 0
0.000000e+00 0.000000e+00 0
0.000000e+00 0.000000e+00 0
0.000000e+00 0.000000e+00 0
-2.597905e+00 0.000000e+00 0
0.000000e+00 0.000000e+00 0
0.000000e+00 0.000000e+00 0
-2.948353e-16 0.000000e+00 0
0.000000e+00 0.000000e+00 0
0.000000e+00 0.000000e+00 0
0.000000e+00 0.000000e+00 0
0.000000e+00 0.000000e+00 0
8.765246e-02 0.000000e+00 0
0.000000e+00 0.000000e+00 0
0.000000e+00 0.000000e+00 0
0.000000e+00 0.000000e+00 0
0.000000e+00 0.000000e+00 0
0.000000e+00 0.000000e+00 0
0.000000e+00 0.000000e+00 0
0.000000e+00 0.000000e+00 0
0.000000e+00 0.000000e+00 0
0.000000e+00 0.000000e+00 0
0.000000e+00 0.000000e+00 0
0.000000e+00 0.000000e+00 0
0.000000e+00 0.000000e+00 0
0.000000e+00 0.000000e+00 0
0.000000e+00 0.000000e+00 0
0.000000e+00 0.000000e+00 0
0.000000e+00 0.000000e+00 0
0.000000e+00 0.000000e+00 0
0.000000e+00 0.000000e+00 0
0.000000e+00 0.000000e+00 0
0.000000e+00 0.000000e+00 0
0.000000e+00 0.000000e+00 0
0.000000e+00 0.000000e+00 0
0.000000e+00 0.000000e+00 0
0.000000e+00 0.000000e+00 0
0.000000e+00 0.000000e+00 0
0.000000e+00 0.000000e+00 0
0.000000e+00 0.000000e+00 0
0.000000e+00 0.000000e+00 0
0.000000e+00 0.000000e+00 0
0.000000e+00 0.000000e+00 0
0.000000e+00 0.000000e+00 0
0.000000e+00 0.000000e+00 0
0.000000e+00 0.000000e+00 0
0.000000e+00 0.000000e+00 0
0.000000e+00 0.000000e+00 0
0.000000e+00 0.000000e+00 0
0.000000e+00 0.000000e+00 0
0.000000e+00 0.000000e+00 0
0.000000e+00 0.000000e+00 0
0.000000e+00 0.000000e+00 0
0.000000e+00 0.000000e+00 0
0.000000e+00 0.000000e+00 0
0.000000e+00 0.000000e+00 0
0.000000e+00 0.000000e+00 0
0.000000e+00 0.000000e+00 0
0.000000e+00 0.000000e+00 0
0.000000e+00 0.000000e+00 0
0.000000e+00 0.000000e+00 0
0.000000e+00 0.000000e+00 0
0.000000e+00 0.000000e+00 0
0.000000e+00 0.000000e+00 0
0.000000e+00 0.000000e+00 0
0.000000e+00 0.000000e+00 0
0.000000e+00 0.000000e+00 0
0.000000e+00 0.000000e+00 0
0.000000e+00 0.000000e+00 0
0.000000e+00 0.000000e+00 0
0.000000e+00 0.000000e+00 0
-8.631027e-01 0.000000e+00 0
0.000000e+00 0.000000e+00 0
0.000000e+00 0.000000e+00 0
9.775126e+00 2.016765e+00 0
5.658913e+00 9.923325e+00 0
-4.878103e-01 3.169541e+00 0
-2.421155e+00 -9.340468e+00 0
-1.155388e+00 -5.274335e+00 0
1.197508e+00 -9.437170e-01 0
-2.187970e-01 -2.728317e-01 0
0.000000e+00 0.000000e+00 0
0.000000e+00 0.000000e+00 0
0.000000e+00 0.000000e+00 0
0.000000e+00 0.000000e+00 0
0.000000e+00 0.000000e+00 0
0.000000e+00 0.000000e+00 0
0.000000e+00 0.000000e+00 0
0.000000e+00 0.000000e+00 0
0.000000e+00 0.000000e+00 0
0.000000e+00 0.000000e+00 0
0.000000e+00 0.000000e+00 0
0.000000e+00 0.000000e+00 0
0.000000e+00 0.000000e+00 0
0.000000e+00 0.000000e+00 0
0.000000e+00 0.000000e+00 0
0.000000e+00 0.000000e+00 0
0.000000e+00 0.000000e+00 0
0.000000e+00 0.000000e+00 0
0.000000e+00 0.000000e+00 0
0.000000e+00 0.000000e+00 0
0.000000e+00 0.000000e+00 0
0.000000e+00 0.000000e+00 0
0.000000e+00 0.000000e+00 0
0.000000e+00 0.000000e+00 0
0.000000e+00 0.000000e+00 0
0.000000e+00 0.000000e+00 0
0.000000e+00 0.000000e+00 0
0.000000e+00 0.000000e+00 0
0.000000e+00 0.000000e+00 0
0.000000e+00 0.000000e+00 0
0.000000e+00 0.000000e+00 0
0.000000e+00 0.000000e+00 0
0.000000e+00 0.000000e+00 0
0.000000e+00 0.000000e+00 0
0.000000e+00 0.000000e+00 0
0.000000e+00 0.000000e+00 0
0.000000e+00 0.000000e+00 0
0.000000e+00 0.000000e+00 0
0.000000e+00 0.000000e+00 0
0.000000e+00 0.000000e+00 0
0.000000e+00 0.000000e+00 0
0.000000e+00 0.000000e+00 0
0.000000e+00 0.000000e+00 0
0.000000e+00 0.000000e+00 0
0.000000e+00 0.000000e+00 0
0.000000e+00 0.000000e+00 0
0.000000e+00 0.000000e+00 0
0.000000e+00 0.000000e+00 0
0.000000e+00 0.000000e+00 0
0.000000e+00 0.000000e+00 0
0.000000e+00 0.000000e+00 0
0.000000e+00 0.000000e+00 0
0.000000e+00 0.000000e+00 0
0.000000e+00 0.000000e+00 0
0.000000e+00 0.000000e+00 0
0.000000e+00 0.000000e+00 0
0.000000e+00 0.000000e+00 0
0.000000e+00 0.000000e+00 0
0.000000e+00 0.000000e+00 0
1.594070e-16 0.000000e+00 0
2.261274e+00 -3.134596e+00 0
4.832120e+00 -1.002027e+01 0
7.839572e+00 -3.169944e+00 0
1.222593e+01 1.002804e+01 0
1.612989e+01 8.297735e+00 0
6.379957e+00 6.855619e-01 0
2.128231e+00 -3.716144e+00 0
3.316839e+00 -8.113161e-01 0
1.584925e+00 1.327574e+00 0
2.267755e+00 -6.117310e-02 0
4.862773e+00 2.162166e-01 0
0.000000e+00 0.000000e+00 0
-4.141061e+00 0.000000e+00 0
0.000000e+00 0.000000e+00 0
0.000000e+00 0.000000e+00 0
0.000000e+00 0.000000e+00 0
0.000000e+00 0.000000e+00 0
0.000000e+00 0.000000e+00 0
0.000000e+00 0.000000e+00 0
0.000000e+00 0.000000e+00 0
0.000000e+00 0.000000e+00 0
0.000000e+00 0.000000e+00 0
0.000000e+00 0.000000e+00 0
0.000000e+00 0.000000e+00 0
0.000000e+00 0.000000e+00 0
0.000000e+00 0.000000e+00 0
0.000000e+00 0.000000e+00 0
0.000000e+00 0.000000e+00 0
0.000000e+00 0.000000e+00 0
0.000000e+00 0.000000e+00 0
0.000000e+00 0.000000e+00 0
0.000000e+00 0.000000e+00 0
0.000000e+00 0.000000e+00 0
0.000000e+00 0.000000e+00 0
0.000000e+00 0.000000e+00 0
0.000000e+00 0.000000e+00 0
0.000000e+00 0.000000e+00 0
0.000000e+00 0.000000e+00 0
0.000000e+00 0.000000e+00 0
0.000000e+00 0.000000e+00 0
0.000000e+00 0.000000e+00 0
0.000000e+00 0.000000e+00 0
0.000000e+00 0.000000e+00 0
0.000000e+00 0.000000e+00 0
0.000000e+00 0.000000e+00 0
0.000000e+00 0.000000e+00 0
0.000000e+00 0.000000e+00 0
0.000000e+00 0.000000e+00 0
0.000000e+00 0.000000e+00 0
0.000000e+00 0.000000e+00 0
0.000000e+00 0.000000e+00 0
0.000000e+00 0.000000e+00 0
0.000000e+00 0.000000e+00 0
0.000000e+00 0.000000e+00 0
0.000000e+00 0.000000e+00 0
0.000000e+00 0.000000e+00 0
0.000000e+00 0.000000e+00 0
0.000000e+00 0.000000e+00 0
0.000000e+00 0.000000e+00 0
0.000000e+00 0.000000e+00 0
0.000000e+00 0.000000e+00 0
0.000000e+00 0.000000e+00 0
0.000000e+00 0.000000e+00 0
0.000000e+00 0.000000e+00 0
0.000000e+00 0.000000e+00 0
-1.357458e+00 0.000000e+00 0
0.000000e+00 -1.195788e-15 0
2.495288e+00 -1.851819e+00 0
1.875079e+00 -2.845113e+00 0
2.670991e+00 -4.100102e+00 0
3.575537e+00 -5.710387e+00 0
-2.627674e+00 -5.091333e+00 0
6.954954e+00 1.409672e+00 0
1.302964e+01 9.172996e+00 0
7.095225e+00 5.038382e+00 0
-9.982875e-01 -2.128701e+00 0
7.941768e-01 -3.857747e-01 0
2.214151e+00 6.618012e-01 0
3.120868e+00 -3.202630e+00 0
5.577095e+00 2.514422e+00 0
3.423347e+00 4.873116e+00 0
-1.912884e-15 9.209146e-16 0
0.000000e+00 1.156682e-15 0
0.000000e+00 0.000000e+00 0
0.000000e+00 0.000000e+00 0
0.000000e+00 0.000000e+00 0
0.000000e+00 0.000000e+00 0
0.000000e+00 0.000000e+00 0
0.000000e+00 0.000000e+00 0
0.000000e+00 0.000000e+00 0
0.000000e+00 0.000000e+00 0
0.000000e+00 0.000000e+00 0
0.000000e+00 0.000000e+00 0
0.000000e+00 0.000000e+00 0
0.000000e+00 0.000000e+00 0
0.000000e+00 0.000000e+00 0
0.000000e+00 0.000000e+00 0
0.000000e+00 0.000000e+00 0
0.000000e+00 0.000000e+00 0
0.000000e+00 0.000000e+00 0
0.000000e+00 0.000000e+00 0
0.000000e+00 0.000000e+00 0
0.000000e+00 0.000000e+00 0
0.000000e+00 0.000000e+00 0
0.000000e+00 0.000000e+00 0
0.000000e+00 0.000000e+00 0
0.000000e+00 0.000000e+00 0
0.000000e+00 0.000000e+00 0
0.000000e+00 0.000000e+00 0
0.000000e+00 0.000000e+00 0
0.000000e+00 0.000000e+00 0
0.000000e+00 0.000000e+00 0
0.000000e+00 0.000000e+00 0
0.000000e+00 0.000000e+00 0
0.000000e+00 0.000000e+00 0
0.000000e+00 0.000000e+00 0
0.000000e+00 0.000000e+00 0
0.000000e+00 0.000000e+00 0
0.000000e+00 0.000000e+00 0
0.000000e+00 0.000000e+00 0
0.000000e+00 0.000000e+00 0
0.000000e+00 0.000000e+00 0
0.000000e+00 0.000000e+00 0
0.000000e+00 0.000000e+00 0
0.000000e+00 0.000000e+00 0
0.000000e+00 0.000000e+00 0
0.000000e+00 0.000000e+00 0
0.000000e+00 0.000000e+00 0
0.000000e+00 0.000000e+00 0
0.000000e+00 0.000000e+00 0
0.000000e+00 0.000000e+00 0
0.000000e+00 0.000000e+00 0
6.003252e+00 0.000000e+00 0
0.000000e+00 0.000000e+00 0
-1.434663e-15 0.000000e+00 0
-2.638573e+00 -4.554467e+00 0
-1.650802e+00 -6.741710e+00 0
-4.117861e-01 -2.562054e+00 0
-1.424081e+00 -4.438320e+00 0
2.222405e+00 -4.578868e+00 0
-9.066397e-01 -6.640398e+00 0
-3.718884e+00 -6.051059e+00 0
7.630324e-02 8.153685e+00 0
5.213484e+00 1.509138e+01 0
4.982518e+00 2.754647e+00 0
3.140624e+00 -4.110293e+00 0
4.699121e+00 -1.061795e+00 0
2.054816e+00 -3.514710e+00 0
4.542207e+00 -2.150642e-01 0
7.185844e+00 1.193132e+00 0
9.414141e+00 3.507541e+00 0
8.595485e+00 4.405522e+00 0
0.000000e+00 0.000000e+00 0
-1.348601e+01 0.000000e+00 0
-1.001482e+01 0.000000e+00 0
0.000000e+00 0.000000e+00 0
0.000000e+00 0.000000e+00 0
0.000000e+00 0.000000e+00 0
0.000000e+00 0.000000e+00 0
0.000000e+00 0.000000e+00 0
0.000000e+00 0.000000e+00 0
0.000000e+00 0.000000e+00 0
0.000000e+00 0.000000e+00 0
0.000000e+00 0.000000e+00 0
0.000000e+00 0.000000e+00 0
0.000000e+00 0.000000e+00 0
0.000000e+00 0.000000e+00 0
0.000000e+00 0.000000e+00 0
0.000000e+00 0.000000e+00 0
0.000000e+00 0.000000e+00 0
0.000000e+00 0.000000e+00 0
0.000000e+00 0.000000e+00 0
0.000000e+00 0.000000e+00 0
0.000000e+00 0.000000e+00 0
0.000000e+00 0.000000e+00 0
0.000000e+00 0.000000e+00 0
0.000000e+00 0.000000e+00 0
0.000000e+00 0.000000e+00 0
0.000000e+00 0.000000e+00 0
0.000000e+00 0.000000e+00 0
0.000000e+00 0.000000e+00 0
0.000000e+00 0.000000e+00 0
0.000000e+00 0.000000e+00 0
0.000000e+00 0.000000e+00 0
0.000000e+00 0.000000e+00 0
0.000000e+00 0.000000e+00 0
0.000000e+00 0.000000e+00 0
0.000000e+00 0.000000e+00 0
0.000000e+00 0.000000e+00 0
0.000000e+00 0.000000e+00 0
0.000000e+00 0.000000e+00 0
0.000000e+00 0.000000e+00 0
0.000000e+00 0.000000e+00 0
0.000000e+00 0.000000e+00 0
0.000000e+00 0.000000e+00 0
0.000000e+00 0.000000e+00 0
0.000000e+00 0.000000e+00 0
0.000000e+00 0.000000e+00 0
0.000000e+00 0.000000e+00 0
0.000000e+00 0.000000e+00 0
0.000000e+00 0.000000e+00 0
6.376281e-15 0.000000e+00 0
-8.310748e+00 -1.189922e+00 0
-4.880813e+00 3.742543e+00 0
-7.993233e+00 3.140010e-01 0
-8.423260e+00 -9.601371e+00 0
-3.643270e+00 -4.936636e+00 0
-5.528211e+00 -6.805254e+00 0
-1.237122e-01 -6.241768e+00 0
-2.145199e-01 6.097575e-01 0
-7.651537e-15 0.000000e+00 0
-8.112620e-15 0.000000e+00 0
1.434663e-15 0.000000e+00 0
8.926793e-15 0.000000e+00 0
4.463397e-15 0.000000e+00 0
4.288693e+00 1.871604e+00 0
3.014568e+00 -3.041489e+00 0
1.056598e+01 -2.754829e+00 0
8.747349e+00 -2.909945e-01 0
1.267934e+01 -1.455641e+00 0
1.831054e+01 9.240079e+00 0
1.502234e+01 8.246462e+00 0
-1.561248e-14 0.000000e+00 0
-1.020205e-14 0.000000e+00 0
-8.717096e-14 0.000000e+00 0
-1.010324e+01 0.000000e+00 0
0.000000e+00 0.000000e+00 0
0.000000e+00 0.000000e+00 0
0.000000e+00 0.000000e+00 0
0.000000e+00 0.000000e+00 0
0.000000e+00 0.000000e+00 0
0.000000e+00 0.000000e+00 0
0.000000e+00 0.000000e+00 0
0.000000e+00 0.000000e+00 0
0.000000e+00 0.000000e+00 0
0.000000e+00 0.000000e+00 0
0.000000e+00 0.000000e+00 0
0.000000e+00 0.000000e+00 0
0.000000e+00 0.000000e+00 0
0.000000e+00 0.000000e+00 0
0.000000e+00 0.000000e+00 0
0.000000e+00 0.000000e+00 0
0.000000e+00 0.000000e+00 0
0.000000e+00 0.000000e+00 0
0.000000e+00 0.000000e+00 0
0.000000e+00 0.000000e+00 0
0.000000e+00 0.000000e+00 0
0.000000e+00 0.000000e+00 0
0.000000e+00 0.000000e+00 0
0.000000e+00 0.000000e+00 0
0.000000e+00 0.000000e+00 0
0.000000e+00 0.000000e+00 0
0.000000e+00 0.000000e+00 0
0.000000e+00 0.000000e+00 0
0.000000e+00 0.000000e+00 0
0.000000e+00 0.000000e+00 0
0.000000e+00 0.000000e+00 0
0.000000e+00 0.000000e+00 0
0.000000e+00 0.000000e+00 0
0.000000e+00 0.000000e+00 0
0.000000e+00 0.000000e+00 0
0.000000e+00 0.000000e+00 0
0.000000e+00 0.000000e+00 0
0.000000e+00 0.000000e+00 0
0.000000e+00 0.000000e+00 0
0.000000e+00 0.000000e+00 0
0.000000e+00 0.000000e+00 0
8.072068e+00 0.000000e+00 0
0.000000e+00 0.000000e+00 0
-1.347720e+00 6.096402e+00 0
-7.427305e+00 8.272522e+00 0
-1.209302e+01 -1.142108e+00 0
-8.826878e+00 -5.006864e-01 0
-9.891925e+00 -2.907439e+00 0
-8.672392e+00 -1.282098e+01 0
-4.136281e+00 -5.535092e+00 0
-3.694412e+00 -8.439092e+00 0
2.231698e-15 -1.000000e+01 0
0.000000e+00 0.000000e+00 0
6.568637e+00 0.000000e+00 0
2.859996e+01 0.000000e+00 0
2.094534e+01 0.000000e+00 0
8.226102e+00 0.000000e+00 0
-4.053547e+00 0.000000e+00 0
0.000000e+00 0.000000e+00 0
-3.506954e-15 -1.000000e+01 0
6.738094e+00 -6.041264e+00 0
8.777084e+00 -9.771622e-01 0
1.611739e+01 -6.313266e+00 0
1.971490e+01 1.418834e+00 0
2.806090e+01 4.786948e+00 0
2.635847e+01 5.555455e+00 0
2.293872e+01 1.327498e+01 0
1.527518e+01 9.710275e+00 0
2.167936e-14 0.000000e+00 0
0.000000e+00 0.000000e+00 0
0.000000e+00 0.000000e+00 0
0.000000e+00 0.000000e+00 0
0.000000e+00 0.000000e+00 0
0.000000e+00 0.000000e+00 0
0.000000e+00 0.000000e+00 0
0.000000e+00 0.000000e+00 0
0.000000e+00 0.000000e+00 0
0.000000e+00 0.000000e+00 0
0.000000e+00 0.000000e+00 0
0.000000e+00 0.000000e+00 0
0.000000e+00 0.000000e+00 0
0.000000e+00 0.000000e+00 0
0.000000e+00 0.000000e+00 0
0.000000e+00 0.000000e+00 0
0.000000e+00 0.000000e+00 0
0.000000e+00 0.000000e+00 0
0.000000e+00 0.000000e+00 0
0.000000e+00 0.000000e+00 0
0.000000e+00 0.000000e+00 0
0.000000e+00 0.000000e+00 0
0.000000e+00 0.000000e+00 0
0.000000e+00 0.000000e+00 0
0.000000e+00 0.000000e+00 0
0.000000e+00 0.000000e+00 0
0.000000e+00 0.000000e+00 0
0.000000e+00 0.000000e+00 0
0.000000e+00 0.000000e+00 0
0.000000e+00 0.000000e+00 0
0.000000e+00 0.000000e+00 0
0.000000e+00 0.000000e+00 0
0.000000e+00 0.000000e+00 0
0.000000e+00 0.000000e+00 0
0.000000e+00 0.000000e+00 0
0.000000e+00 0.000000e+00 0
0.000000e+00 0.000000e+00 0
0.000000e+00 0.000000e+00 0
0.000000e+00 0.000000e+00 0
0.000000e+00 0.000000e+00 0
0.000000e+00 0.000000e+00 0
0.000000e+00 0.000000e+00 0
0.000000e+00 0.000000e+00 0
-4.834484e+00 9.905824e-01 0
-1.815679e+00 7.165374e+00 0
-6.911510e+00 1.077266e+01 0
-1.202693e+01 5.381778e-02 0
-7.139660e+00 2.746484e-01 0
-8.908587e+00 -1.052156e+00 0
-4.395222e+00 -1.587085e+01 0
-1.881003e-14 -1.000000e+01 0
0.000000e+00 -2.000000e+01 0
1.004795e+00 -2.000000e+01 0
3.295509e+01 0.000000e+00 0
0.000000e+00 0.000000e+00 0
-6.458823e-16 0.000000e+00 0
0.000000e+00 0.000000e+00 0
0.000000e+00 0.000000e+00 0
0.000000e+00 0.000000e+00 0
1.223790e+01 0.000000e+00 0
-1.725213e+00 -2.000000e+01 0
0.000000e+00 -2.000000e+01 0
0.000000e+00 -1.000000e+01 0
8.711131e+00 -1.270080e+01 0
1.725304e+01 -3.025175e+00 0
2.317014e+01 1.836952e+00 0
2.183848e+01 5.673205e+00 0
2.482421e+01 1.080753e+01 0
2.982220e+01 1.315151e+01 0
2.412948e+01 1.568342e+01 0
1.359059e+01 9.827558e+00 0
0.000000e+00 0.000000e+00 0
0.000000e+00 0.000000e+00 0
0.000000e+00 0.000000e+00 0
0.000000e+00 0.000000e+00 0
0.000000e+00 0.000000e+00 0
0.000000e+00 0.000000e+00 0
0.000000e+00 0.000000e+00 0
0.000000e+00 0.000000e+00 0
0.000000e+00 0.000000e+00 0
0.000000e+00 0.000000e+00 0
0.000000e+00 0.000000e+00 0
0.000000e+00 0.000000e+00 0
0.000000e+00 0.000000e+00 0
0.000000e+00 0.000000e+00 0
0.000000e+00 0.000000e+00 0
0.000000e+00 0.000000e+00 0
0.000000e+00 0.000000e+00 0
0.000000e+00 0.000000e+00 0
0.000000e+00 0.000000e+00 0
0.000000e+00 0.000000e+00 0
0.000000e+00 0.000000e+00 0
0.000000e+00 0.000000e+00 0
0.000000e+00 0.000000e+00 0
0.000000e+00 0.000000e+00 0
0.000000e+00 0.000000e+00 0
0.000000e+00 0.000000e+00 0
0.000000e+00 0.000000e+00 0
0.000000e+00 0.000000e+00 0
0.000000e+00 0.000000e+00 0
0.000000e+00 0.000000e+00 0
0.000000e+00 0.000000e+00 0
0.000000e+00 0.000000e+00 0
0.000000e+00 0.000000e+00 0
0.000000e+00 0.000000e+00 0
0.000000e+00 0.000000e+00 0
0.000000e+00 0.000000e+00 0
-1.068295e-14 0.000000e+00 0
4.952680e+00 0.000000e+00 0
1.068295e-14 0.000000e+00 0
-4.698654e+00 7.990724e+00 0
-8.656819e+00 5.100649e+00 0
-8.388501e+00 -6.383646e+00 0
-4.841692e+00 7.835937e+00 0
-5.848571e+00 1.875885e+01 0
-1.429065e+01 -9.078120e-01 0
-9.082554e+00 -3.703032e+00 0
-4.371322e+00 -5.365878e+00 0
0.000000e+00 -2.000000e+01 0
1.916773e+00 -1.000000e+01 0
3.101017e+01 0.000000e+00 0
0.000000e+00 0.000000e+00 0
-7.141435e-14 0.000000e+00 0
-4.114435e+01 1.547301e+01 0
-5.964458e+01 1.573220e+01 0
-5.807740e+01 -5.748494e+00 0
-4.756641e+01 -1.779814e+01 0
-2.461229e+01 -1.179046e+01 0
-2.550512e-14 0.000000e+00 0
0.000000e+00 0.000000e+00 0
-3.271945e-14 0.000000e+00 0
-3.792232e+00 -1.000000e+01 0
0.000000e+00 -2.000000e+01 0
7.253192e+00 -1.328030e+01 0
1.683437e+01 7.798054e-02 0
1.485091e+01 3.856827e+00 0
2.246607e+01 5.076189e+00 0
2.745699e+01 1.096831e+01 0
2.875840e+01 1.666561e+01 0
3.041192e+01 2.312214e+01 0
1.852419e+01 1.284720e+01 0
0.000000e+00 0.000000e+00 0
-2.239472e+01 0.000000e+00 0
0.000000e+00 0.000000e+00 0
0.000000e+00 0.000000e+00 0
0.000000e+00 0.000000e+00 0
0.000000e+00 0.000000e+00 0
0.000000e+00 0.000000e+00 0
0.000000e+00 0.000000e+00 0
0.000000e+00 0.000000e+00 0
0.000000e+00 0.000000e+00 0
0.000000e+00 0.000000e+00 0
0.000000e+00 0.000000e+00 0
0.000000e+00 0.000000e+00 0
0.000000e+00 0.000000e+00 0
0.000000e+00 0.000000e+00 0
0.000000e+00 0.000000e+00 0
0.000000e+00 0.000000e+00 0
0.000000e+00 0.000000e+00 0
0.000000e+00 0.000000e+00 0
0.000000e+00 0.000000e+00 0
0.000000e+00 0.000000e+00 0
0.000000e+00 0.000000e+00 0
0.000000e+00 0.000000e+00 0
0.000000e+00 0.000000e+00 0
0.000000e+00 0.000000e+00 0
0.000000e+00 0.000000e+00 0
0.000000e+00 0.000000e+00 0
0.000000e+00 0.000000e+00 0
0.000000e+00 0.000000e+00 0
0.000000e+00 0.000000e+00 0
0.000000e+00 0.000000e+00 0
0.000000e+00 0.000000e+00 0
0.000000e+00 0.000000e+00 0
0.000000e+00 0.000000e+00 0
9.359714e+00 0.000000e+00 0
2.265310e-29 0.000000e+00 0
-1.020205e-14 0.000000e+00 0
-6.448189e+00 4.665711e+00 0
-9.199447e+00 8.431708e+00 0
-3.426836e+00 3.925177e+00 0
-1.151659e+01 -2.492593e+00 0
-1.500171e+01 4.557021e+00 0
-1.392615e+01 2.047616e+01 0
-6.045990e+00 3.267361e+00 0
9.564421e-15 -1.000000e+01 0
0.000000e+00 -2.000000e+01 0
2.420828e+01 -2.000000e+01 0
1.044347e-13 0.000000e+00 0
-6.631332e-14 0.000000e+00 0
-4.115909e+01 2.582434e+01 0
-7.576427e+01 4.118396e+01 0
-8.809916e+01 2.714330e+01 0
-8.170798e+01 1.022649e+01 0
-7.817451e+01 -1.229591e+01 0
-6.915155e+01 -2.922049e+01 0
-5.470305e+01 -3.591465e+01 0
-3.460647e+01 -2.529295e+01 0
-8.905602e+00 -7.860072e+00 0
1.794245e-13 0.000000e+00 0
2.079556e+01 0.000000e+00 0
0.000000e+00 -1.000000e+01 0
5.783186e-14 -2.000000e+01 0
6.702797e+00 -5.801780e+00 0
9.657628e+00 -1.102017e-01 0
2.021571e+01 -2.138137e+00 0
2.106713e+01 6.689676e+00 0
2.886397e+01 1.264888e+01 0
3.481531e+01 1.922796e+01 0
4.231599e+01 2.548626e+01 0
3.807487e+01 1.438779e+01 0
8.838348e+00 0.000000e+00 0
0.000000e+00 0.000000e+00 0
0.000000e+00 0.000000e+00 0
0.000000e+00 0.000000e+00 0
0.000000e+00 0.000000e+00 0
0.000000e+00 0.000000e+00 0
0.000000e+00 0.000000e+00 0
0.000000e+00 0.000000e+00 0
0.000000e+00 0.000000e+00 0
0.000000e+00 0.000000e+00 0
0.000000e+00 0.000000e+00 0
0.000000e+00 0.000000e+00 0
0.000000e+00 0.000000e+00 0
0.000000e+00 0.000000e+00 0
0.000000e+00 0.000000e+00 0
0.000000e+00 0.000000e+00 0
0.000000e+00 0.000000e+00 0
0.000000e+00 0.000000e+00 0
0.000000e+00 0.000000e+00 0
0.000000e+00 0.000000e+00 0
0.000000e+00 0.000000e+00 0
0.000000e+00 0.000000e+00 0
0.000000e+00 0.000000e+00 0
0.000000e+00 0.000000e+00 0
0.000000e+00 0.000000e+00 0
0.000000e+00 0.000000e+00 0
0.000000e+00 0.000000e+00 0
0.000000e+00 0.000000e+00 0
0.000000e+00 0.000000e+00 0
0.000000e+00 0.000000e+00 0