<?xml version="1.0"?>
<VTKFile type="StructuredGrid">
<StructuredGrid WholeExtent="0 19 0 33 0 0 ">
<Piece Extent="0 19 0 33 0 0 ">
<Points>
<DataArray type="Float64" format="ascii" NumberOfComponents="3">
0.000000e+00 0.000000e+00 0.000000e+00
1.052632e-01 0.000000e+00 0.000000e+00
2.105263e-01 0.000000e+00 0.000000e+00
3.157895e-01 0.000000e+00 0.000000e+00
4.210526e-01 0.000000e+00 0.000000e+00
5.263158e-01 0.000000e+00 0.000000e+00
6.315789e-01 0.000000e+00 0.000000e+00
7.368421e-01 0.000000e+00 0.000000e+00
8.421053e-01 0.000000e+00 0.000000e+00
9.473684e-01 0.000000e+00 0.000000e+00
1.052632e+00 0.000000e+00 0.000000e+00
1.157895e+00 0.000000e+00 0.000000e+00
1.263158e+00 0.000000e+00 0.000000e+00
1.368421e+00 0.000000e+00 0.000000e+00
1.473684e+00 0.000000e+00 0.000000e+00
1.578947e+00 0.000000e+00 0.000000e+00
1.684211e+00 0.000000e+00 0.000000e+00
1.789474e+00 0.000000e+00 0.000000e+00
1.894737e+00 0.000000e+00 0.000000e+00
2.000000e+00 0.000000e+00 0.000000e+00
0.000000e+00 1.060606e-01 0.000000e+00
1.052632e-01 1.060606e-01 0.000000e+00
2.105263e-01 1.060606e-01 0.000000e+00
3.157895e-01 1.060606e-01 0.000000e+00
4.210526e-01 1.060606e-01 0.000000e+00
5.263158e-01 1.060606e-01 0.000000e+00
6.315789e-01 1.060606e-01 0.000000e+00
7.368421e-01 1.060606e-01 0.000000e+00
8.421053e-01 1.060606e-01 0.000000e+00
9.473684e-01 1.060606e-01 0.000000e+00
1.052632e+00 1.060606e-01 0.000000e+00
1.157895e+00 1.060606e-01 0.000000e+00
1.263158e+00 1.060606e-01 0.000000e+00
1.368421e+00 1.060606e-01 0.000000e+00
1.473684e+00 1.060606e-01 0.000000e+00
1.578947e+00 1.060606e-01 0.000000e+00
1.684211e+00 1.060606e-01 0.000000e+00
1.789474e+00 1.060606e-01 0.000000e+00
1.894737e+00 1.060606e-01 0.000000e+00
2.000000e+00 1.060606e-01 0.000000e+00
0.000000e+00 2.121212e-01 0.000000e+00
1.052632e-01 2.121212e-01 0.000000e+00
2.105263e-01 2.121212e-01 0.000000e+00
3.157895e-01 2.121212e-01 0.000000e+00
4.210526e-01 2.121212e-01 0.000000e+00
5.263158e-01 2.121212e-01 0.000000e+00
6.315789e-01 2.121212e-01 0.000000e+00
7.368421e-01 2.121212e-01 0.000000e+00
8.421053e-01 2.121212e-01 0.000000e+00
9.473684e-01 2.121212e-01 0.000000e+00
1.052632e+00 2.121212e-01 0.000000e+00
1.157895e+00 2.121212e-01 0.000000e+00
1.263158e+00 2.121212e-01 0.000000e+00
1.368421e+00 2.121212e-01 0.000000e+00
1.473684e+00 2.121212e-01 0.000000e+00
1.578947e+00 2.121212e-01 0.000000e+00
1.684211e+00 2.121212e-01 0.000000e+00
1.789474e+00 2.121212e-01 0.000000e+00
1.894737e+00 2.121212e-01 0.000000e+00
2.000000e+00 2.121212e-01 0.000000e+00
0.000000e+00 3.181818e-01 0.000000e+00
1.052632e-01 3.181818e-01 0.000000e+00
2.105263e-01 3.181818e-01 0.000000e+00
3.157895e-01 3.181818e-01 0.000000e+00
4.210526e-01 3.181818e-01 0.000000e+00
5.263158e-01 3.181818e-01 0.000000e+00
6.315789e-01 3.181818e-01 0.000000e+00
7.368421e-01 3.181818e-01 0.000000e+00
8.421053e-01 3.181818e-01 0.000000e+00
9.473684e-01 3.181818e-01 0.000000e+00
1.052632e+00 3.181818e-01 0.000000e+00
1.157895e+00 3.181818e-01 0.000000e+00
1.263158e+00 3.181818e-01 0.000000e+00
1.368421e+00 3.181818e-01 0.000000e+00
1.473684e+00 3.181818e-01 0.000000e+00
1.578947e+00 3.181818e-01 0.000000e+00
1.684211e+00 3.181818e-01 0.000000e+00
1.789474e+00 3.181818e-01 0.000000e+00
1.894737e+00 3.181818e-01 0.000000e+00
2.000000e+00 3.181818e-01 0.000000e+00
0.000000e+00 4.242424e-01 0.000000e+00
1.052632e-01 4.242424e-01 0.000000e+00
2.105263e-01 4.242424e-01 0.000000e+00
3.157895e-01 4.242424e-01 0.000000e+00
4.210526e-01 4.242424e-01 0.000000e+00
5.263158e-01 4.242424e-01 0.000000e+00
6.315789e-01 4.242424e-01 0.000000e+00
7.368421e-01 4.242424e-01 0.000000e+00
8.421053e-01 4.242424e-01 0.000000e+00
9.473684e-01 4.242424e-01 0.000000e+00
1.052632e+00 4.242424e-01 0.000000e+00
1.157895e+00 4.242424e-01 0.000000e+00
1.263158e+00 4.242424e-01 0.000000e+00
1.368421e+00 4.242424e-01 0.000000e+00
1.473684e+00 4.242424e-01 0.000000e+00
1.578947e+00 4.242424e-01 0.000000e+00
1.684211e+00 4.242424e-01 0.000000e+00
1.789474e+00 4.242424e-01 0.000000e+00
1.894737e+00 4.242424e-01 0.000000e+00
2.000000e+00 4.242424e-01 0.000000e+00
0.000000e+00 5.303030e-01 0.000000e+00
1.052632e-01 5.303030e-01 0.000000e+00
2.105263e-01 5.303030e-01 0.000000e+00
3.157895e-01 5.303030e-01 0.000000e+00
4.210526e-01 5.303030e-01 0.000000e+00
5.263158e-01 5.303030e-01 0.000000e+00
6.315789e-01 5.303030e-01 0.000000e+00
7.368421e-01 5.303030e-01 0.000000e+00
8.421053e-01 5.303030e-01 0.000000e+00
9.473684e-01 5.303030e-01 0.000000e+00
1.052632e+00 5.303030e-01 0.000000e+00
1.157895e+00 5.303030e-01 0.000000e+00
1.263158e+00 5.303030e-01 0.000000e+00
1.368421e+00 5.303030e-01 0.000000e+00
1.473684e+00 5.303030e-01 0.000000e+00
1.578947e+00 5.303030e-01 0.000000e+00
1.684211e+00 5.303030e-01 0.000000e+00
1.789474e+00 5.303030e-01 0.000000e+00
1.894737e+00 5.303030e-01 0.000000e+00
2.000000e+00 5.303030e-01 0.000000e+00
0.000000e+00 6.363636e-01 0.000000e+00
1.052632e-01 6.363636e-01 0.000000e+00
2.105263e-01 6.363636e-01 0.000000e+00
3.157895e-01 6.363636e-01 0.000000e+00
4.210526e-01 6.363636e-01 0.000000e+00
5.263158e-01 6.363636e-01 0.000000e+00
6.315789e-01 6.363636e-01 0.000000e+00
7.368421e-01 6.363636e-01 0.000000e+00
8.421053e-01 6.363636e-01 0.000000e+00
9.473684e-01 6.363636e-01 0.000000e+00
1.052632e+00 6.363636e-01 0.000000e+00
1.157895e+00 6.363636e-01 0.000000e+00
1.263158e+00 6.363636e-01 0.000000e+00
1.368421e+00 6.363636e-01 0.000000e+00
1.473684e+00 6.363636e-01 0.000000e+00
1.578947e+00 6.363636e-01 0.000000e+00
1.684211e+00 6.363636e-01 0.000000e+00
1.789474e+00 6.363636e-01 0.000000e+00
1.894737e+00 6.363636e-01 0.000000e+00
2.000000e+00 6.363636e-01 0.000000e+00
0.000000e+00 7.424242e-01 0.000000e+00
1.052632e-01 7.424242e-01 0.000000e+00
2.105263e-01 7.424242e-01 0.000000e+00
3.157895e-01 7.424242e-01 0.000000e+00
4.210526e-01 7.424242e-01 0.000000e+00
5.263158e-01 7.424242e-01 0.000000e+00
6.315789e-01 7.424242e-01 0.000000e+00
7.368421e-01 7.424242e-01 0.000000e+00
8.421053e-01 7.424242e-01 0.000000e+00
9.473684e-01 7.424242e-01 0.000000e+00
1.052632e+00 7.424242e-01 0.000000e+00
1.157895e+00 7.424242e-01 0.000000e+00
1.263158e+00 7.424242e-01 0.000000e+00
1.368421e+00 7.424242e-01 0.000000e+00
1.473684e+00 7.424242e-01 0.000000e+00
1.578947e+00 7.424242e-01 0.000000e+00
1.684211e+00 7.424242e-01 0.000000e+00
1.789474e+00 7.424242e-01 0.000000e+00
1.894737e+00 7.424242e-01 0.000000e+00
2.000000e+00 7.424242e-01 0.000000e+00
0.000000e+00 8.484848e-01 0.000000e+00
1.052632e-01 8.484848e-01 0.000000e+00
2.105263e-01 8.484848e-01 0.000000e+00
3.157895e-01 8.484848e-01 0.000000e+00
4.210526e-01 8.484848e-01 0.000000e+00
5.263158e-01 8.484848e-01 0.000000e+00
6.315789e-01 8.484848e-01 0.000000e+00
7.368421e-01 8.484848e-01 0.000000e+00
8.421053e-01 8.484848e-01 0.000000e+00
9.473684e-01 8.484848e-01 0.000000e+00
1.052632e+00 8.484848e-01 0.000000e+00
1.157895e+00 8.484848e-01 0.000000e+00
1.263158e+00 8.484848e-01 0.000000e+00
1.368421e+00 8.484848e-01 0.000000e+00
1.473684e+00 8.484848e-01 0.000000e+00
1.578947e+00 8.484848e-01 0.000000e+00
1.684211e+00 8.484848e-01 0.000000e+00
1.789474e+00 8.484848e-01 0.000000e+00
1.894737e+00 8.484848e-01 0.000000e+00
2.000000e+00 8.484848e-01 0.000000e+00
0.000000e+00 9.545455e-01 0.000000e+00
1.052632e-01 9.545455e-01 0.000000e+00
2.105263e-01 9.545455e-01 0.000000e+00
3.157895e-01 9.545455e-01 0.000000e+00
4.210526e-01 9.545455e-01 0.000000e+00
5.263158e-01 9.545455e-01 0.000000e+00
6.315789e-01 9.545455e-01 0.000000e+00
7.368421e-01 9.545455e-01 0.000000e+00
8.421053e-01 9.545455e-01 0.000000e+00
9.473684e-01 9.545455e-01 0.000000e+00
1.052632e+00 9.545455e-01 0.000000e+00
1.157895e+00 9.545455e-01 0.000000e+00
1.263158e+00 9.545455e-01 0.000000e+00
1.368421e+00 9.545455e-01 0.000000e+00
1.473684e+00 9.545455e-01 0.000000e+00
1.578947e+00 9.545455e-01 0.000000e+00
1.684211e+00 9.545455e-01 0.000000e+00
1.789474e+00 9.545455e-01 0.000000e+00
1.894737e+00 9.545455e-01 0.000000e+00
2.000000e+00 9.545455e-01 0.000000e+00
0.000000e+00 1.060606e+00 0.000000e+00
1.052632e-01 1.060606e+00 0.000000e+00
2.105263e-01 1.060606e+00 0.000000e+00
3.157895e-01 1.060606e+00 0.000000e+00
4.210526e-01 1.060606e+00 0.000000e+00
5.263158e-01 1.060606e+00 0.000000e+00
6.315789e-01 1.060606e+00 0.000000e+00
7.368421e-01 1.060606e+00 0.000000e+00
8.421053e-01 1.060606e+00 0.000000e+00
9.473684e-01 1.060606e+00 0.000000e+00
1.052632e+00 1.060606e+00 0.000000e+00
1.157895e+00 1.060606e+00 0.000000e+00
1.263158e+00 1.060606e+00 0.000000e+00
1.368421e+00 1.060606e+00 0.000000e+00
1.473684e+00 1.060606e+00 0.000000e+00
1.578947e+00 1.060606e+00 0.000000e+00
1.684211e+00 1.060606e+00 0.000000e+00
1.789474e+00 1.060606e+00 0.000000e+00
1.894737e+00 1.060606e+00 0.000000e+00
2.000000e+00 1.060606e+00 0.000000e+00
0.000000e+00 1.166667e+00 0.000000e+00
1.052632e-01 1.166667e+00 0.000000e+00
2.105263e-01 1.166667e+00 0.000000e+00
3.157895e-01 1.166667e+00 0.000000e+00
4.210526e-01 1.166667e+00 0.000000e+00
5.263158e-01 1.166667e+00 0.000000e+00
6.315789e-01 1.166667e+00 0.000000e+00
7.368421e-01 1.166667e+00 0.000000e+00
8.421053e-01 1.166667e+00 0.000000e+00
9.473684e-01 1.166667e+00 0.000000e+00
1.052632e+00 1.166667e+00 0.000000e+00
1.157895e+00 1.166667e+00 0.000000e+00
1.263158e+00 1.166667e+00 0.000000e+00
1.368421e+00 1.166667e+00 0.000000e+00
1.473684e+00 1.166667e+00 0.000000e+00
1.578947e+00 1.166667e+00 0.000000e+00
1.684211e+00 1.166667e+00 0.000000e+00
1.789474e+00 1.166667e+00 0.000000e+00
1.894737e+00 1.166667e+00 0.000000e+00
2.000000e+00 1.166667e+00 0.000000e+00
0.000000e+00 1.272727e+00 0.000000e+00
1.052632e-01 1.272727e+00 0.000000e+00
2.105263e-01 1.272727e+00 0.000000e+00
3.157895e-01 1.272727e+00 0.000000e+00
4.210526e-01 1.272727e+00 0.000000e+00
5.263158e-01 1.272727e+00 0.000000e+00
6.315789e-01 1.272727e+00 0.000000e+00
7.368421e-01 1.272727e+00 0.000000e+00
8.421053e-01 1.272727e+00 0.000000e+00
9.473684e-01 1.272727e+00 0.000000e+00
1.052632e+00 1.272727e+00 0.000000e+00
[...]
<PointData>
<DataArray Name="Velocity" type="Float64" format="ascii" NumberOfComponents="3">
0.000000e+00 0.000000e+00 0
0.000000e+00 0.000000e+00 0
0.000000e+00 0.000000e+00 0
0.000000e+00 0.000000e+00 0
0.000000e+00 0.000000e+00 0
0.000000e+00 0.000000e+00 0
0.000000e+00 0.000000e+00 0
0.000000e+00 0.000000e+00 0
0.000000e+00 0.000000e+00 0
0.000000e+00 0.000000e+00 0
0.000000e+00 0.000000e+00 0
-2.633303e-16 0.000000e+00 0
0.000000e+00 0.000000e+00 0
0.000000e+00 0.000000e+00 0
0.000000e+00 0.000000e+00 0
1.064097e-15 0.000000e+00 0
0.000000e+00 0.000000e+00 0
0.000000e+00 0.000000e+00 0
0.000000e+00 0.000000e+00 0
0.000000e+00 0.000000e+00 0
0.000000e+00 0.000000e+00 0
0.000000e+00 0.000000e+00 0
0.000000e+00 0.000000e+00 0
0.000000e+00 0.000000e+00 0
0.000000e+00 0.000000e+00 0
0.000000e+00 1.433027e+01 0
-1.488904e+01 -6.899715e+01 0
-8.940588e+01 -1.138121e+02 0
-6.002787e+01 -5.076266e+01 0
-3.027946e+01 -4.032332e+01 0
2.684135e+00 -3.855195e+01 0
3.497205e+01 -2.300847e+01 0
2.816088e+01 -6.687216e+00 0
3.032983e+01 -3.943339e+00 0
3.207457e+01 -1.126405e+00 0
3.144776e+01 5.602233e+00 0
5.111000e+01 1.596093e+01 0
3.628199e+01 1.984478e+01 0
1.072377e+01 1.564302e+01 0
0.000000e+00 -2.859023e-14 0
0.000000e+00 0.000000e+00 0
0.000000e+00 0.000000e+00 0
0.000000e+00 0.000000e+00 0
0.000000e+00 0.000000e+00 0
0.000000e+00 0.000000e+00 0
0.000000e+00 8.301028e+01 0
9.583112e+00 5.826312e+01 0
-5.600306e+01 -5.434774e+01 0
-5.411331e+01 -5.957436e+01 0
-3.688559e+01 -6.318709e+01 0
-1.558955e+01 -6.574583e+01 0
6.461430e+00 -3.253252e+01 0
0.000000e+00 0.000000e+00 0
0.000000e+00 0.000000e+00 0
0.000000e+00 0.000000e+00 0
5.205421e-14 4.970679e+00 0
2.467698e+01 1.991102e+01 0
2.075659e+01 4.030422e+01 0
3.711850e+01 3.616888e+01 0
0.000000e+00 -4.723602e-14 0
0.000000e+00 0.000000e+00 0
0.000000e+00 0.000000e+00 0
0.000000e+00 0.000000e+00 0
0.000000e+00 0.000000e+00 0
0.000000e+00 0.000000e+00 0
0.000000e+00 5.113156e+01 0
3.100891e+01 3.478731e+01 0
-9.323098e+01 -4.873298e+01 0
-6.637327e+01 -7.002496e+01 0
-4.768301e+01 -7.913892e+01 0
-3.323512e+01 -8.222736e+01 0
-1.922476e+01 -4.072466e+01 0
0.000000e+00 0.000000e+00 0
0.000000e+00 0.000000e+00 0
0.000000e+00 0.000000e+00 0
0.000000e+00 1.300804e-15 0
0.000000e+00 5.210624e-15 0
0.000000e+00 2.536387e+01 0
3.313219e+01 6.451490e+01 0
0.000000e+00 -1.591108e-13 0
0.000000e+00 0.000000e+00 0
0.000000e+00 0.000000e+00 0
0.000000e+00 0.000000e+00 0
0.000000e+00 0.000000e+00 0
0.000000e+00 0.000000e+00 0
0.000000e+00 5.113156e+01 0
6.735040e+00 5.675007e+01 0
-1.032182e+02 -5.104325e+01 0
-7.194936e+01 -1.054674e+02 0
-5.157713e+01 -9.657628e+01 0
-3.975041e+01 -9.441967e+01 0
-3.062741e+01 -4.664902e+01 0
-1.622038e+01 0.000000e+00 0
0.000000e+00 0.000000e+00 0
0.000000e+00 0.000000e+00 0
0.000000e+00 0.000000e+00 0
0.000000e+00 0.000000e+00 0
0.000000e+00 0.000000e+00 0
0.000000e+00 6.311479e+01 0
0.000000e+00 -2.684995e-13 0
0.000000e+00 0.000000e+00 0
0.000000e+00 0.000000e+00 0
0.000000e+00 0.000000e+00 0
0.000000e+00 0.000000e+00 0
0.000000e+00 0.000000e+00 0
0.000000e+00 5.113156e+01 0
1.758808e+01 5.068405e+01 0
-8.552105e+01 -6.434201e+01 0
-6.150995e+01 -1.220573e+02 0
-4.484985e+01 -1.115818e+02 0
-3.544359e+01 -1.034690e+02 0
-3.001571e+01 -9.725942e+01 0
-2.889559e+01 -4.720941e+01 0
0.000000e+00 0.000000e+00 0
0.000000e+00 0.000000e+00 0
0.000000e+00 0.000000e+00 0
0.000000e+00 0.000000e+00 0
0.000000e+00 0.000000e+00 0
0.000000e+00 6.311479e+01 0
0.000000e+00 -2.784439e-13 0
0.000000e+00 0.000000e+00 0
0.000000e+00 0.000000e+00 0
0.000000e+00 0.000000e+00 0
0.000000e+00 0.000000e+00 0
0.000000e+00 0.000000e+00 0
0.000000e+00 5.113156e+01 0
6.850070e+01 6.806227e+01 0
-3.529335e+01 -6.392406e+01 0
-3.440693e+01 -1.464467e+02 0
-3.052448e+01 -1.228401e+02 0
-2.696416e+01 -1.094994e+02 0
-2.417898e+01 -1.005893e+02 0
-2.162330e+01 -4.833801e+01 0
0.000000e+00 0.000000e+00 0
0.000000e+00 0.000000e+00 0
0.000000e+00 0.000000e+00 0
0.000000e+00 0.000000e+00 0
0.000000e+00 0.000000e+00 0
0.000000e+00 6.311479e+01 0
0.000000e+00 -2.684995e-13 0
0.000000e+00 0.000000e+00 0
0.000000e+00 0.000000e+00 0
0.000000e+00 0.000000e+00 0
0.000000e+00 0.000000e+00 0
0.000000e+00 0.000000e+00 0
0.000000e+00 0.000000e+00 0
0.000000e+00 1.693071e+01 0
8.693090e+00 -4.543718e+01 0
-7.253240e+00 -1.244425e+02 0
-1.544603e+01 -1.190810e+02 0
-1.768594e+01 -1.098626e+02 0
-1.754112e+01 -1.026407e+02 0
-1.535598e+01 -4.978445e+01 0
0.000000e+00 0.000000e+00 0
0.000000e+00 0.000000e+00 0
0.000000e+00 0.000000e+00 0
0.000000e+00 0.000000e+00 0
0.000000e+00 0.000000e+00 0
0.000000e+00 6.311479e+01 0
0.000000e+00 -2.684995e-13 0
0.000000e+00 0.000000e+00 0
0.000000e+00 0.000000e+00 0
0.000000e+00 0.000000e+00 0
0.000000e+00 0.000000e+00 0
0.000000e+00 0.000000e+00 0
0.000000e+00 0.000000e+00 0
0.000000e+00 0.000000e+00 0
0.000000e+00 -5.000000e+01 0
0.000000e+00 -1.066010e+02 0
-6.976809e+00 -1.115923e+02 0
-1.069484e+01 -1.073885e+02 0
-1.182519e+01 -1.029369e+02 0
-1.088751e+01 -5.053971e+01 0
0.000000e+00 0.000000e+00 0
0.000000e+00 0.000000e+00 0
0.000000e+00 0.000000e+00 0
0.000000e+00 0.000000e+00 0
0.000000e+00 0.000000e+00 0
0.000000e+00 6.311479e+01 0
0.000000e+00 -2.684995e-13 0
0.000000e+00 0.000000e+00 0
0.000000e+00 0.000000e+00 0
0.000000e+00 0.000000e+00 0
0.000000e+00 0.000000e+00 0
0.000000e+00 0.000000e+00 0
0.000000e+00 0.000000e+00 0
0.000000e+00 0.000000e+00 0
0.000000e+00 -5.000000e+01 0
0.000000e+00 -1.038445e+02 0
-3.497704e+00 -1.071046e+02 0
-6.386046e+00 -1.049775e+02 0
-7.625177e+00 -1.024466e+02 0
-7.860132e+00 -5.072924e+01 0
0.000000e+00 0.000000e+00 0
0.000000e+00 0.000000e+00 0
0.000000e+00 0.000000e+00 0
0.000000e+00 0.000000e+00 0
0.000000e+00 0.000000e+00 0
0.000000e+00 6.311479e+01 0
0.000000e+00 -2.684995e-13 0
0.000000e+00 0.000000e+00 0
0.000000e+00 0.000000e+00 0
0.000000e+00 0.000000e+00 0
0.000000e+00 0.000000e+00 0
0.000000e+00 0.000000e+00 0
0.000000e+00 0.000000e+00 0
0.000000e+00 0.000000e+00 0
0.000000e+00 -5.000000e+01 0
0.000000e+00 -1.023189e+02 0
-1.920510e+00 -1.044000e+02 0
-3.840319e+00 -1.032297e+02 0
-4.785059e+00 -1.014516e+02 0
-5.284931e+00 -5.030297e+01 0
0.000000e+00 0.000000e+00 0
0.000000e+00 0.000000e+00 0
0.000000e+00 0.000000e+00 0
0.000000e+00 0.000000e+00 0
0.000000e+00 0.000000e+00 0
0.000000e+00 6.311479e+01 0
0.000000e+00 -2.684995e-13 0
0.000000e+00 0.000000e+00 0
0.000000e+00 0.000000e+00 0
0.000000e+00 0.000000e+00 0
0.000000e+00 0.000000e+00 0
0.000000e+00 0.000000e+00 0
0.000000e+00 0.000000e+00 0
0.000000e+00 0.000000e+00 0
0.000000e+00 -5.000000e+01 0
0.000000e+00 -1.014332e+02 0
-1.111175e+00 -1.027590e+02 0
-2.331044e+00 -1.020912e+02 0
-2.964542e+00 -1.009911e+02 0
-3.318639e+00 -5.022558e+01 0
0.000000e+00 0.000000e+00 0
0.000000e+00 0.000000e+00 0
0.000000e+00 0.000000e+00 0
0.000000e+00 0.000000e+00 0
0.000000e+00 0.000000e+00 0
0.000000e+00 6.311479e+01 0
0.000000e+00 -2.684995e-13 0
0.000000e+00 0.000000e+00 0
0.000000e+00 0.000000e+00 0
0.000000e+00 0.000000e+00 0
0.000000e+00 0.000000e+00 0
0.000000e+00 0.000000e+00 0
0.000000e+00 0.000000e+00 0
0.000000e+00 0.000000e+00 0
0.000000e+00 -5.000000e+01 0
0.000000e+00 -1.009048e+02 0
-6.645749e-01 -1.017567e+02 0
-1.427366e+00 -1.013623e+02 0
-1.838788e+00 -1.004565e+02 0
-2.165605e+00 -4.994620e+01 0
0.000000e+00 0.000000e+00 0
0.000000e+00 0.000000e+00 0
0.000000e+00 0.000000e+00 0
0.000000e+00 0.000000e+00 0
0.000000e+00 0.000000e+00 0
0.000000e+00 6.311479e+01 0
0.000000e+00 -2.684995e-13 0
0.000000e+00 0.000000e+00 0
0.000000e+00 0.000000e+00 0
0.000000e+00 0.000000e+00 0
0.000000e+00 0.000000e+00 0
0.000000e+00 0.000000e+00 0
0.000000e+00 0.000000e+00 0
0.000000e+00 0.000000e+00 0
0.000000e+00 -5.000000e+01 0
0.000000e+00 -1.005845e+02 0
-4.062449e-01 -1.011416e+02 0
-8.808460e-01 -1.009081e+02 0
-1.139967e+00 -1.002472e+02 0
-1.196281e+00 -4.989629e+01 0
0.000000e+00 0.000000e+00 0
0.000000e+00 0.000000e+00 0
0.000000e+00 0.000000e+00 0
0.000000e+00 0.000000e+00 0
0.000000e+00 0.000000e+00 0
0.000000e+00 6.311479e+01 0
0.000000e+00 -2.684995e-13 0
0.000000e+00 0.000000e+00 0
0.000000e+00 0.000000e+00 0
0.000000e+00 0.000000e+00 0
0.000000e+00 0.000000e+00 0
0.000000e+00 0.000000e+00 0
0.000000e+00 0.000000e+00 0
0.000000e+00 0.000000e+00 0
0.000000e+00 -5.000000e+01 0
0.000000e+00 -1.003881e+02 0
-2.526424e-01 -1.007618e+02 0
-5.485101e-01 -1.006230e+02 0
-7.139441e-01 -1.001387e+02 0
-6.894251e-01 -4.988945e+01 0
0.000000e+00 0.000000e+00 0
0.000000e+00 0.000000e+00 0
0.000000e+00 0.000000e+00 0
0.000000e+00 0.000000e+00 0
0.000000e+00 0.000000e+00 0
0.000000e+00 6.311479e+01 0
0.000000e+00 -2.684995e-13 0
0.000000e+00 0.000000e+00 0
0.000000e+00 0.000000e+00 0
0.000000e+00 0.000000e+00 0
0.000000e+00 0.000000e+00 0
0.000000e+00 0.000000e+00 0
0.000000e+00 0.000000e+00 0
0.000000e+00 0.000000e+00 0
0.000000e+00 -5.000000e+01 0
0.000000e+00 -1.002664e+02 0
-1.597522e-01 -1.005254e+02 0
-3.455134e-01 -1.004433e+02 0
-4.520455e-01 -1.001052e+02 0
-4.289616e-01 -4.992099e+01 0
0.000000e+00 0.000000e+00 0
0.000000e+00 0.000000e+00 0
0.000000e+00 0.000000e+00 0
0.000000e+00 0.000000e+00 0
0.000000e+00 0.000000e+00 0
0.000000e+00 6.311479e+01 0
0.000000e+00 -2.684995e-13 0
0.000000e+00 0.000000e+00 0
0.000000e+00 0.000000e+00 0
0.000000e+00 0.000000e+00 0
0.000000e+00 0.000000e+00 0
0.000000e+00 0.000000e+00 0
0.000000e+00 0.000000e+00 0
0.000000e+00 0.000000e+00 0
0.000000e+00 -5.000000e+01 0
0.000000e+00 -1.001899e+02 0
-1.029637e-01 -1.003765e+02 0
-2.211133e-01 -1.003285e+02 0
-2.909961e-01 -1.000546e+02 0
-3.198519e-01 -4.991271e+01 0
0.000000e+00 0.000000e+00 0
0.000000e+00 0.000000e+00 0
0.000000e+00 0.000000e+00 0
0.000000e+00 0.000000e+00 0
0.000000e+00 0.000000e+00 0
0.000000e+00 6.311479e+01 0
0.000000e+00 -2.684995e-13 0
0.000000e+00 0.000000e+00 0
0.000000e+00 0.000000e+00 0
0.000000e+00 0.000000e+00 0
0.000000e+00 0.000000e+00 0
0.000000e+00 0.000000e+00 0
0.000000e+00 0.000000e+00 0
0.000000e+00 0.000000e+00 0
0.000000e+00 -5.000000e+01 0
0.000000e+00 -1.001410e+02 0
-6.798460e-02 -1.002810e+02 0
-1.446508e-01 -1.002539e+02 0
-1.916635e-01 -1.000058e+02 0
-1.752149e-01 -4.989192e+01 0
0.000000e+00 0.000000e+00 0
0.000000e+00 0.000000e+00 0
0.000000e+00 0.000000e+00 0
0.000000e+00 0.000000e+00 0
0.000000e+00 0.000000e+00 0
0.000000e+00 6.311479e+01 0
0.000000e+00 -2.684995e-13 0
0.000000e+00 0.000000e+00 0
0.000000e+00 0.000000e+00 0
0.000000e+00 0.000000e+00 0
0.000000e+00 0.000000e+00 0
0.000000e+00 0.000000e+00 0
0.000000e+00 0.000000e+00 0
0.000000e+00 0.000000e+00 0
0.000000e+00 -5.000000e+01 0
0.000000e+00 -1.001089e+02 0
-4.632188e-02 -1.002183e+02 0
-9.752921e-02 -1.002039e+02 0
-1.305082e-01 -1.000238e+02 0
-9.121309e-02 -4.992929e+01 0
0.000000e+00 0.000000e+00 0
0.000000e+00 0.000000e+00 0
0.000000e+00 0.000000e+00 0
0.000000e+00 0.000000e+00 0
0.000000e+00 0.000000e+00 0
0.000000e+00 0.000000e+00 0
0.000000e+00 0.000000e+00 0
0.000000e+00 0.000000e+00 0
0.000000e+00 0.000000e+00 0
0.000000e+00 0.000000e+00 0
0.000000e+00 0.000000e+00 0
0.000000e+00 0.000000e+00 0
0.000000e+00 0.000000e+00 0
0.000000e+00 0.000000e+00 0
0.000000e+00 -5.000000e+01 0
0.000000e+00 -1.000872e+02 0
-3.285127e-02 -1.001756e+02 0
-6.842464e-02 -1.001690e+02 0
-9.280771e-02 -1.000121e+02 0
-2.262571e-02 -4.993151e+01 0
0.000000e+00 0.000000e+00 0
0.000000e+00 0.000000e+00 0
0.000000e+00 0.000000e+00 0
0.000000e+00 0.000000e+00 0
0.000000e+00 0.000000e+00 0
0.000000e+00 0.000000e+00 0
0.000000e+00 0.000000e+00 0
0.000000e+00 0.000000e+00 0
0.000000e+00 0.000000e+00 0
0.000000e+00 0.000000e+00 0
0.000000e+00 0.000000e+00 0
0.000000e+00 0.000000e+00 0
0.000000e+00 0.000000e+00 0
0.000000e+00 0.000000e+00 0
0.000000e+00 -5.000000e+01 0
0.000000e+00 -1.000717e+02 0
-2.444307e-02 -1.001452e+02 0
-5.039651e-02 -1.001435e+02 0
-6.947350e-02 -1.000700e+02 0
-1.498527e-03 -5.000000e+01 0
0.000000e+00 0.000000e+00 0
0.000000e+00 0.000000e+00 0
0.000000e+00 0.000000e+00 0
0.000000e+00 0.000000e+00 0
0.000000e+00 0.000000e+00 0
0.000000e+00 0.000000e+00 0
0.000000e+00 0.000000e+00 0
0.000000e+00 0.000000e+00 0
0.000000e+00 0.000000e+00 0
0.000000e+00 0.000000e+00 0
0.000000e+00 0.000000e+00 0
0.000000e+00 0.000000e+00 0
0.000000e+00 0.000000e+00 0
0.000000e+00 0.000000e+00 0
0.000000e+00 -5.000000e+01 0
0.000000e+00 -1.000602e+02 0
-1.917281e-02 -1.001224e+02 0
-3.919320e-02 -1.001237e+02 0
-5.500410e-02 -1.000614e+02 0
-9.260244e-02 -5.000000e+01 0
0.000000e+00 0.000000e+00 0
0.000000e+00 0.000000e+00 0
0.000000e+00 0.000000e+00 0
0.000000e+00 0.000000e+00 0
0.000000e+00 0.000000e+00 0
0.000000e+00 0.000000e+00 0
0.000000e+00 0.000000e+00 0
0.000000e+00 0.000000e+00 0
0.000000e+00 0.000000e+00 0
0.000000e+00 0.000000e+00 0
0.000000e+00 0.000000e+00 0
0.000000e+00 0.000000e+00 0
0.000000e+00 0.000000e+00 0
0.000000e+00 0.000000e+00 0
0.000000e+00 -5.000000e+01 0
0.000000e+00 -1.000510e+02 0
-1.584715e-02 -1.001044e+02 0
-3.219384e-02 -1.001074e+02 0
-4.593485e-02 -1.000162e+02 0
-4.593485e-02 -4.996212e+01 0
0.000000e+00 0.000000e+00 0
0.000000e+00 0.000000e+00 0
0.000000e+00 0.000000e+00 0
0.000000e+00 0.000000e+00 0
0.000000e+00 0.000000e+00 0
0.000000e+00 0.000000e+00 0
0.000000e+00 0.000000e+00 0
0.000000e+00 0.000000e+00 0
0.000000e+00 0.000000e+00 0
0.000000e+00 0.000000e+00 0
0.000000e+00 0.000000e+00 0
0.000000e+00 0.000000e+00 0
0.000000e+00 0.000000e+00 0
0.000000e+00 0.000000e+00 0
0.000000e+00 -5.000000e+01 0
0.000000e+00 -1.000434e+02 0
-1.371817e-02 -1.000892e+02 0
-2.776508e-02 -1.000933e+02 0
-4.021606e-02 -1.000475e+02 0
-2.617721e-03 -5.000000e+01 0
0.000000e+00 0.000000e+00 0
0.000000e+00 0.000000e+00 0
0.000000e+00 0.000000e+00 0
0.000000e+00 0.000000e+00 0
0.000000e+00 0.000000e+00 0
0.000000e+00 0.000000e+00 0
0.000000e+00 0.000000e+00 0
0.000000e+00 0.000000e+00 0
0.000000e+00 0.000000e+00 0
0.000000e+00 0.000000e+00 0
0.000000e+00 0.000000e+00 0
0.000000e+00 0.000000e+00 0
0.000000e+00 0.000000e+00 0
0.000000e+00 0.000000e+00 0
0.000000e+00 -5.000000e+01 0
0.000000e+00 -1.000367e+02 0
-1.231478e-02 -1.000759e+02 0
-2.489784e-02 -1.000807e+02 0
-3.654980e-02 -1.000415e+02 0
-3.654980e-02 -5.000000e+01 0
0.000000e+00 0.000000e+00 0
0.000000e+00 0.000000e+00 0
0.000000e+00 0.000000e+00 0
0.000000e+00 0.000000e+00 0
0.000000e+00 0.000000e+00 0
0.000000e+00 0.000000e+00 0
0.000000e+00 0.000000e+00 0
0.000000e+00 0.000000e+00 0
0.000000e+00 0.000000e+00 0
0.000000e+00 0.000000e+00 0
0.000000e+00 0.000000e+00 0
0.000000e+00 0.000000e+00 0
0.000000e+00 0.000000e+00 0
0.000000e+00 0.000000e+00 0
0.000000e+00 -5.000000e+01 0
0.000000e+00 -1.000307e+02 0
-1.133031e-02 -1.000638e+02 0
-2.294435e-02 -1.000689e+02 0
-3.405934e-02 -1.000358e+02 0
-3.405934e-02 -5.000000e+01 0
0.000000e+00 0.000000e+00 0
0.000000e+00 0.000000e+00 0
0.000000e+00 0.000000e+00 0
0.000000e+00 0.000000e+00 0
0.000000e+00 0.000000e+00 0
0.000000e+00 0.000000e+00 0
0.000000e+00 0.000000e+00 0
0.000000e+00 0.000000e+00 0
0.000000e+00 0.000000e+00 0
0.000000e+00 0.000000e+00 0
0.000000e+00 0.000000e+00 0
0.000000e+00 0.000000e+00 0
0.000000e+00 0.000000e+00 0
0.000000e+00 0.000000e+00 0
0.000000e+00 -5.000000e+01 0
0.000000e+00 -1.000251e+02 0
-1.055404e-02 -1.000526e+02 0
-2.147043e-02 -1.000578e+02 0
-3.220007e-02 -1.000303e+02 0
-3.220007e-02 -5.000000e+01 0
0.000000e+00 0.000000e+00 0
0.000000e+00 0.000000e+00 0
0.000000e+00 0.000000e+00 0
0.000000e+00 0.000000e+00 0
0.000000e+00 0.000000e+00 0
0.000000e+00 0.000000e+00 0
0.000000e+00 0.000000e+00 0
0.000000e+00 0.000000e+00 0
0.000000e+00 0.000000e+00 0
0.000000e+00 0.000000e+00 0
0.000000e+00 0.000000e+00 0
0.000000e+00 0.000000e+00 0
0.000000e+00 0.000000e+00 0
0.000000e+00 0.000000e+00 0
0.000000e+00 -5.000000e+01 0
0.000000e+00 -1.000199e+02 0
-9.827546e-03 -1.000420e+02 0
-2.016402e-02 -1.000471e+02 0
-3.057346e-02 -1.000250e+02 0
-3.057346e-02 -5.000000e+01 0
0.000000e+00 0.000000e+00 0
0.000000e+00 0.000000e+00 0
0.000000e+00 0.000000e+00 0
0.000000e+00 0.000000e+00 0
0.000000e+00 0.000000e+00 0
0.000000e+00 0.000000e+00 0
0.000000e+00 0.000000e+00 0
0.000000e+00 0.000000e+00 0
0.000000e+00 0.000000e+00 0
0.000000e+00 0.000000e+00 0
0.000000e+00 0.000000e+00 0
0.000000e+00 0.000000e+00 0
0.000000e+00 0.000000e+00 0
0.000000e+00 0.000000e+00 0
0.000000e+00 -5.000000e+01 0
0.000000e+00 -1.000150e+02 0
-9.013102e-03 -1.000320e+02 0
-1.876534e-02 -1.000369e+02 0
-2.884866e-02 -1.000198e+02 0
-2.884866e-02 -5.000000e+01 0
0.000000e+00 0.000000e+00 0
0.000000e+00 0.000000e+00 0
0.000000e+00 0.000000e+00 0
0.000000e+00 0.000000e+00 0
0.000000e+00 0.000000e+00 0
0.000000e+00 0.000000e+00 0
0.000000e+00 0.000000e+00 0
0.000000e+00 0.000000e+00 0
0.000000e+00 0.000000e+00 0
0.000000e+00 0.000000e+00 0
0.000000e+00 0.000000e+00 0
0.000000e+00 0.000000e+00 0
0.000000e+00 0.000000e+00 0
0.000000e+00 0.000000e+00 0
0.000000e+00 -5.000000e+01 0
0.000000e+00 -1.000105e+02 0
-7.971821e-03 -1.000228e+02 0
-1.701597e-02 -1.000271e+02 0
-2.668929e-02 -1.000148e+02 0
-2.668929e-02 -5.000000e+01 0
0.000000e+00 0.000000e+00 0
0.000000e+00 0.000000e+00 0
0.000000e+00 0.000000e+00 0
0.000000e+00 0.000000e+00 0
0.000000e+00 0.000000e+00 0
0.000000e+00 0.000000e+00 0
0.000000e+00 0.000000e+00 0
0.000000e+00 0.000000e+00 0
0.000000e+00 0.000000e+00 0
0.000000e+00 0.000000e+00 0
0.000000e+00 0.000000e+00 0
0.000000e+00 0.000000e+00 0
0.000000e+00 0.000000e+00 0
0.000000e+00 0.000000e+00 0
0.000000e+00 -5.000000e+01 0
0.000000e+00 -1.000066e+02 0
-6.554598e-03 -1.000145e+02 0
-1.461685e-02 -1.000180e+02 0
-2.367447e-02 -1.000101e+02 0
-6.121912e-02 -5.000000e+01 0
0.000000e+00 0.000000e+00 0
0.000000e+00 0.000000e+00 0
0.000000e+00 0.000000e+00 0
0.000000e+00 0.000000e+00 0
0.000000e+00 0.000000e+00 0
0.000000e+00 0.000000e+00 0
0.000000e+00 0.000000e+00 0
0.000000e+00 0.000000e+00 0
0.000000e+00 0.000000e+00 0
0.000000e+00 0.000000e+00 0
0.000000e+00 0.000000e+00 0
0.000000e+00 0.000000e+00 0
0.000000e+00 0.000000e+00 0
0.000000e+00 0.000000e+00 0
0.000000e+00 -5.000000e+01 0
0.000000e+00 -1.000034e+02 0
-4.628583e-03 -1.000076e+02 0
-1.119972e-02 -1.000099e+02 0
-1.915189e-02 -9.996787e+01 0
-1.915189e-02 -4.996217e+01 0
0.000000e+00 0.000000e+00 0
0.000000e+00 0.000000e+00 0
0.000000e+00 0.000000e+00 0
0.000000e+00 0.000000e+00 0
0.000000e+00 0.000000e+00 0
0.000000e+00 0.000000e+00 0
0.000000e+00 0.000000e+00 0
0.000000e+00 0.000000e+00 0
0.000000e+00 0.000000e+00 0
0.000000e+00 0.000000e+00 0
0.000000e+00 0.000000e+00 0
0.000000e+00 0.000000e+00 0
0.000000e+00 0.000000e+00 0
0.000000e+00 0.000000e+00 0
0.000000e+00 -5.000000e+01 0
0.000000e+00 -1.000011e+02 0
-2.219078e-03 -1.000025e+02 0
-6.368648e-03 -1.000034e+02 0
-1.202822e-02 -1.000021e+02 0
2.551643e-02 -5.000000e+01 0
0.000000e+00 0.000000e+00 0
0.000000e+00 0.000000e+00 0
0.000000e+00 0.000000e+00 0
0.000000e+00 0.000000e+00 0
0.000000e+00 0.000000e+00 0
0.000000e+00 0.000000e+00 0
0.000000e+00 0.000000e+00 0
0.000000e+00 0.000000e+00 0
0.000000e+00 0.000000e+00 0
0.000000e+00 0.000000e+00 0
0.000000e+00 0.000000e+00 0
0.000000e+00 0.000000e+00 0
0.000000e+00 0.000000e+00 0
0.000000e+00 0.000000e+00 0
0.000000e+00 -5.000000e+01 0
0.000000e+00 -1.000000e+02 0
-3.793498e-18 -1.000000e+02 0
-1.487051e-17 -1.000000e+02 0
-3.199584e-17 -1.000000e+02 0
-3.216886e-17 -5.000000e+01 0
0.000000e+00 0.000000e+00 0
0.000000e+00 0.000000e+00 0
0.000000e+00 0.000000e+00 0
0.000000e+00 0.000000e+00 0
0.000000e+00 0.000000e+00 0
0.000000e+00 0.000000e+00 0
0.000000e+00 0.000000e+00 0
</DataArray>
<DataArray Name="Type and Neighbourhood" type="Float64" format="ascii" NumberOfComponents="3">
1.000000e+01 0.000000e+00 0
1.000000e+01 0.000000e+00 0
1.000000e+01 0.000000e+00 0
1.000000e+01 0.000000e+00 0
1.000000e+01 0.000000e+00 0
1.100000e+01 2.000000e+00 0
0.000000e+00 0.000000e+00 0
0.000000e+00 0.000000e+00 0
0.000000e+00 0.000000e+00 0
0.000000e+00 0.000000e+00 0
0.000000e+00 0.000000e+00 0
1.100000e+01 1.000000e+00 0
1.100000e+01 1.000000e+00 0
1.100000e+01 1.000000e+00 0