<?xml version="1.0"?>
<VTKFile type="StructuredGrid">
<StructuredGrid WholeExtent="0 19 0 33 0 0 ">
<Piece Extent="0 19 0 33 0 0 ">
<Points>
<DataArray type="Float64" format="ascii" NumberOfComponents="3">
0.000000e+00 0.000000e+00 0.000000e+00
1.052632e-01 0.000000e+00 0.000000e+00
2.105263e-01 0.000000e+00 0.000000e+00
3.157895e-01 0.000000e+00 0.000000e+00
4.210526e-01 0.000000e+00 0.000000e+00
5.263158e-01 0.000000e+00 0.000000e+00
6.315789e-01 0.000000e+00 0.000000e+00
7.368421e-01 0.000000e+00 0.000000e+00
8.421053e-01 0.000000e+00 0.000000e+00
9.473684e-01 0.000000e+00 0.000000e+00
1.052632e+00 0.000000e+00 0.000000e+00
1.157895e+00 0.000000e+00 0.000000e+00
1.263158e+00 0.000000e+00 0.000000e+00
1.368421e+00 0.000000e+00 0.000000e+00
1.473684e+00 0.000000e+00 0.000000e+00
1.578947e+00 0.000000e+00 0.000000e+00
1.684211e+00 0.000000e+00 0.000000e+00
1.789474e+00 0.000000e+00 0.000000e+00
1.894737e+00 0.000000e+00 0.000000e+00
2.000000e+00 0.000000e+00 0.000000e+00
0.000000e+00 1.060606e-01 0.000000e+00
1.052632e-01 1.060606e-01 0.000000e+00
2.105263e-01 1.060606e-01 0.000000e+00
3.157895e-01 1.060606e-01 0.000000e+00
4.210526e-01 1.060606e-01 0.000000e+00
5.263158e-01 1.060606e-01 0.000000e+00
6.315789e-01 1.060606e-01 0.000000e+00
7.368421e-01 1.060606e-01 0.000000e+00
8.421053e-01 1.060606e-01 0.000000e+00
9.473684e-01 1.060606e-01 0.000000e+00
1.052632e+00 1.060606e-01 0.000000e+00
1.157895e+00 1.060606e-01 0.000000e+00
1.263158e+00 1.060606e-01 0.000000e+00
1.368421e+00 1.060606e-01 0.000000e+00
1.473684e+00 1.060606e-01 0.000000e+00
1.578947e+00 1.060606e-01 0.000000e+00
1.684211e+00 1.060606e-01 0.000000e+00
1.789474e+00 1.060606e-01 0.000000e+00
1.894737e+00 1.060606e-01 0.000000e+00
2.000000e+00 1.060606e-01 0.000000e+00
0.000000e+00 2.121212e-01 0.000000e+00
1.052632e-01 2.121212e-01 0.000000e+00
2.105263e-01 2.121212e-01 0.000000e+00
3.157895e-01 2.121212e-01 0.000000e+00
4.210526e-01 2.121212e-01 0.000000e+00
5.263158e-01 2.121212e-01 0.000000e+00
6.315789e-01 2.121212e-01 0.000000e+00
7.368421e-01 2.121212e-01 0.000000e+00
8.421053e-01 2.121212e-01 0.000000e+00
9.473684e-01 2.121212e-01 0.000000e+00
1.052632e+00 2.121212e-01 0.000000e+00
1.157895e+00 2.121212e-01 0.000000e+00
1.263158e+00 2.121212e-01 0.000000e+00
1.368421e+00 2.121212e-01 0.000000e+00
1.473684e+00 2.121212e-01 0.000000e+00
1.578947e+00 2.121212e-01 0.000000e+00
1.684211e+00 2.121212e-01 0.000000e+00
1.789474e+00 2.121212e-01 0.000000e+00
1.894737e+00 2.121212e-01 0.000000e+00
2.000000e+00 2.121212e-01 0.000000e+00
0.000000e+00 3.181818e-01 0.000000e+00
1.052632e-01 3.181818e-01 0.000000e+00
2.105263e-01 3.181818e-01 0.000000e+00
3.157895e-01 3.181818e-01 0.000000e+00
4.210526e-01 3.181818e-01 0.000000e+00
5.263158e-01 3.181818e-01 0.000000e+00
6.315789e-01 3.181818e-01 0.000000e+00
7.368421e-01 3.181818e-01 0.000000e+00
8.421053e-01 3.181818e-01 0.000000e+00
9.473684e-01 3.181818e-01 0.000000e+00
1.052632e+00 3.181818e-01 0.000000e+00
1.157895e+00 3.181818e-01 0.000000e+00
1.263158e+00 3.181818e-01 0.000000e+00
1.368421e+00 3.181818e-01 0.000000e+00
1.473684e+00 3.181818e-01 0.000000e+00
1.578947e+00 3.181818e-01 0.000000e+00
1.684211e+00 3.181818e-01 0.000000e+00
1.789474e+00 3.181818e-01 0.000000e+00
1.894737e+00 3.181818e-01 0.000000e+00
2.000000e+00 3.181818e-01 0.000000e+00
0.000000e+00 4.242424e-01 0.000000e+00
1.052632e-01 4.242424e-01 0.000000e+00
2.105263e-01 4.242424e-01 0.000000e+00
3.157895e-01 4.242424e-01 0.000000e+00
4.210526e-01 4.242424e-01 0.000000e+00
5.263158e-01 4.242424e-01 0.000000e+00
6.315789e-01 4.242424e-01 0.000000e+00
7.368421e-01 4.242424e-01 0.000000e+00
8.421053e-01 4.242424e-01 0.000000e+00
9.473684e-01 4.242424e-01 0.000000e+00
1.052632e+00 4.242424e-01 0.000000e+00
1.157895e+00 4.242424e-01 0.000000e+00
1.263158e+00 4.242424e-01 0.000000e+00
1.368421e+00 4.242424e-01 0.000000e+00
1.473684e+00 4.242424e-01 0.000000e+00
1.578947e+00 4.242424e-01 0.000000e+00
1.684211e+00 4.242424e-01 0.000000e+00
1.789474e+00 4.242424e-01 0.000000e+00
1.894737e+00 4.242424e-01 0.000000e+00
2.000000e+00 4.242424e-01 0.000000e+00
0.000000e+00 5.303030e-01 0.000000e+00
1.052632e-01 5.303030e-01 0.000000e+00
2.105263e-01 5.303030e-01 0.000000e+00
3.157895e-01 5.303030e-01 0.000000e+00
4.210526e-01 5.303030e-01 0.000000e+00
5.263158e-01 5.303030e-01 0.000000e+00
6.315789e-01 5.303030e-01 0.000000e+00
7.368421e-01 5.303030e-01 0.000000e+00
8.421053e-01 5.303030e-01 0.000000e+00
9.473684e-01 5.303030e-01 0.000000e+00
1.052632e+00 5.303030e-01 0.000000e+00
1.157895e+00 5.303030e-01 0.000000e+00
1.263158e+00 5.303030e-01 0.000000e+00
1.368421e+00 5.303030e-01 0.000000e+00
1.473684e+00 5.303030e-01 0.000000e+00
1.578947e+00 5.303030e-01 0.000000e+00
1.684211e+00 5.303030e-01 0.000000e+00
1.789474e+00 5.303030e-01 0.000000e+00
1.894737e+00 5.303030e-01 0.000000e+00
2.000000e+00 5.303030e-01 0.000000e+00
0.000000e+00 6.363636e-01 0.000000e+00
1.052632e-01 6.363636e-01 0.000000e+00
2.105263e-01 6.363636e-01 0.000000e+00
3.157895e-01 6.363636e-01 0.000000e+00
4.210526e-01 6.363636e-01 0.000000e+00
5.263158e-01 6.363636e-01 0.000000e+00
6.315789e-01 6.363636e-01 0.000000e+00
7.368421e-01 6.363636e-01 0.000000e+00
8.421053e-01 6.363636e-01 0.000000e+00
9.473684e-01 6.363636e-01 0.000000e+00
1.052632e+00 6.363636e-01 0.000000e+00
1.157895e+00 6.363636e-01 0.000000e+00
1.263158e+00 6.363636e-01 0.000000e+00
1.368421e+00 6.363636e-01 0.000000e+00
1.473684e+00 6.363636e-01 0.000000e+00
1.578947e+00 6.363636e-01 0.000000e+00
1.684211e+00 6.363636e-01 0.000000e+00
1.789474e+00 6.363636e-01 0.000000e+00
1.894737e+00 6.363636e-01 0.000000e+00
2.000000e+00 6.363636e-01 0.000000e+00
0.000000e+00 7.424242e-01 0.000000e+00
1.052632e-01 7.424242e-01 0.000000e+00
2.105263e-01 7.424242e-01 0.000000e+00
3.157895e-01 7.424242e-01 0.000000e+00
4.210526e-01 7.424242e-01 0.000000e+00
5.263158e-01 7.424242e-01 0.000000e+00
6.315789e-01 7.424242e-01 0.000000e+00
7.368421e-01 7.424242e-01 0.000000e+00
8.421053e-01 7.424242e-01 0.000000e+00
9.473684e-01 7.424242e-01 0.000000e+00
1.052632e+00 7.424242e-01 0.000000e+00
1.157895e+00 7.424242e-01 0.000000e+00
1.263158e+00 7.424242e-01 0.000000e+00
1.368421e+00 7.424242e-01 0.000000e+00
1.473684e+00 7.424242e-01 0.000000e+00
1.578947e+00 7.424242e-01 0.000000e+00
1.684211e+00 7.424242e-01 0.000000e+00
1.789474e+00 7.424242e-01 0.000000e+00
1.894737e+00 7.424242e-01 0.000000e+00
2.000000e+00 7.424242e-01 0.000000e+00
0.000000e+00 8.484848e-01 0.000000e+00
1.052632e-01 8.484848e-01 0.000000e+00
2.105263e-01 8.484848e-01 0.000000e+00
3.157895e-01 8.484848e-01 0.000000e+00
4.210526e-01 8.484848e-01 0.000000e+00
5.263158e-01 8.484848e-01 0.000000e+00
6.315789e-01 8.484848e-01 0.000000e+00
7.368421e-01 8.484848e-01 0.000000e+00
8.421053e-01 8.484848e-01 0.000000e+00
9.473684e-01 8.484848e-01 0.000000e+00
1.052632e+00 8.484848e-01 0.000000e+00
1.157895e+00 8.484848e-01 0.000000e+00
1.263158e+00 8.484848e-01 0.000000e+00
1.368421e+00 8.484848e-01 0.000000e+00
1.473684e+00 8.484848e-01 0.000000e+00
1.578947e+00 8.484848e-01 0.000000e+00
1.684211e+00 8.484848e-01 0.000000e+00
1.789474e+00 8.484848e-01 0.000000e+00
1.894737e+00 8.484848e-01 0.000000e+00
2.000000e+00 8.484848e-01 0.000000e+00
0.000000e+00 9.545455e-01 0.000000e+00
1.052632e-01 9.545455e-01 0.000000e+00
2.105263e-01 9.545455e-01 0.000000e+00
3.157895e-01 9.545455e-01 0.000000e+00
4.210526e-01 9.545455e-01 0.000000e+00
5.263158e-01 9.545455e-01 0.000000e+00
6.315789e-01 9.545455e-01 0.000000e+00
7.368421e-01 9.545455e-01 0.000000e+00
8.421053e-01 9.545455e-01 0.000000e+00
9.473684e-01 9.545455e-01 0.000000e+00
1.052632e+00 9.545455e-01 0.000000e+00
1.157895e+00 9.545455e-01 0.000000e+00
1.263158e+00 9.545455e-01 0.000000e+00
1.368421e+00 9.545455e-01 0.000000e+00
1.473684e+00 9.545455e-01 0.000000e+00
1.578947e+00 9.545455e-01 0.000000e+00
1.684211e+00 9.545455e-01 0.000000e+00
1.789474e+00 9.545455e-01 0.000000e+00
1.894737e+00 9.545455e-01 0.000000e+00
2.000000e+00 9.545455e-01 0.000000e+00
0.000000e+00 1.060606e+00 0.000000e+00
1.052632e-01 1.060606e+00 0.000000e+00
2.105263e-01 1.060606e+00 0.000000e+00
3.157895e-01 1.060606e+00 0.000000e+00
4.210526e-01 1.060606e+00 0.000000e+00
5.263158e-01 1.060606e+00 0.000000e+00
6.315789e-01 1.060606e+00 0.000000e+00
7.368421e-01 1.060606e+00 0.000000e+00
8.421053e-01 1.060606e+00 0.000000e+00
9.473684e-01 1.060606e+00 0.000000e+00
1.052632e+00 1.060606e+00 0.000000e+00
1.157895e+00 1.060606e+00 0.000000e+00
1.263158e+00 1.060606e+00 0.000000e+00
1.368421e+00 1.060606e+00 0.000000e+00
1.473684e+00 1.060606e+00 0.000000e+00
1.578947e+00 1.060606e+00 0.000000e+00
1.684211e+00 1.060606e+00 0.000000e+00
1.789474e+00 1.060606e+00 0.000000e+00
1.894737e+00 1.060606e+00 0.000000e+00
2.000000e+00 1.060606e+00 0.000000e+00
0.000000e+00 1.166667e+00 0.000000e+00
1.052632e-01 1.166667e+00 0.000000e+00
2.105263e-01 1.166667e+00 0.000000e+00
3.157895e-01 1.166667e+00 0.000000e+00
4.210526e-01 1.166667e+00 0.000000e+00
5.263158e-01 1.166667e+00 0.000000e+00
6.315789e-01 1.166667e+00 0.000000e+00
7.368421e-01 1.166667e+00 0.000000e+00
8.421053e-01 1.166667e+00 0.000000e+00
9.473684e-01 1.166667e+00 0.000000e+00
1.052632e+00 1.166667e+00 0.000000e+00
1.157895e+00 1.166667e+00 0.000000e+00
1.263158e+00 1.166667e+00 0.000000e+00
1.368421e+00 1.166667e+00 0.000000e+00
1.473684e+00 1.166667e+00 0.000000e+00
1.578947e+00 1.166667e+00 0.000000e+00
1.684211e+00 1.166667e+00 0.000000e+00
1.789474e+00 1.166667e+00 0.000000e+00
1.894737e+00 1.166667e+00 0.000000e+00
2.000000e+00 1.166667e+00 0.000000e+00
0.000000e+00 1.272727e+00 0.000000e+00
1.052632e-01 1.272727e+00 0.000000e+00
2.105263e-01 1.272727e+00 0.000000e+00
3.157895e-01 1.272727e+00 0.000000e+00
4.210526e-01 1.272727e+00 0.000000e+00
5.263158e-01 1.272727e+00 0.000000e+00
6.315789e-01 1.272727e+00 0.000000e+00
7.368421e-01 1.272727e+00 0.000000e+00
8.421053e-01 1.272727e+00 0.000000e+00
9.473684e-01 1.272727e+00 0.000000e+00
1.052632e+00 1.272727e+00 0.000000e+00
[...]
<PointData>
<DataArray Name="Velocity" type="Float64" format="ascii" NumberOfComponents="3">
0.000000e+00 0.000000e+00 0
0.000000e+00 0.000000e+00 0
0.000000e+00 0.000000e+00 0
0.000000e+00 0.000000e+00 0
0.000000e+00 0.000000e+00 0
0.000000e+00 0.000000e+00 0
0.000000e+00 0.000000e+00 0
0.000000e+00 0.000000e+00 0
0.000000e+00 0.000000e+00 0
0.000000e+00 0.000000e+00 0
0.000000e+00 0.000000e+00 0
-2.633303e-16 0.000000e+00 0
0.000000e+00 0.000000e+00 0
0.000000e+00 0.000000e+00 0
0.000000e+00 0.000000e+00 0
1.308916e-15 0.000000e+00 0
0.000000e+00 0.000000e+00 0
0.000000e+00 0.000000e+00 0
0.000000e+00 0.000000e+00 0
0.000000e+00 0.000000e+00 0
0.000000e+00 0.000000e+00 0
0.000000e+00 0.000000e+00 0
0.000000e+00 0.000000e+00 0
0.000000e+00 0.000000e+00 0
0.000000e+00 0.000000e+00 0
0.000000e+00 1.433027e+01 0
-1.488904e+01 -6.984597e+01 0
-8.981907e+01 -1.152877e+02 0
-5.931478e+01 -5.265978e+01 0
-2.788500e+01 -4.413452e+01 0
7.163912e+00 -3.955545e+01 0
3.945182e+01 -1.844668e+01 0
2.816088e+01 -3.662802e+00 0
3.032983e+01 -3.943339e+00 0
3.207457e+01 -1.126405e+00 0
3.144776e+01 5.567349e+00 0
2.654908e+01 1.818453e+01 0
3.402383e+01 2.202853e+01 0
8.374854e+00 1.336775e+01 0
0.000000e+00 -1.926733e-14 0
0.000000e+00 0.000000e+00 0
0.000000e+00 0.000000e+00 0
0.000000e+00 0.000000e+00 0
0.000000e+00 0.000000e+00 0
0.000000e+00 0.000000e+00 0
0.000000e+00 8.301028e+01 0
9.583112e+00 5.716179e+01 0
-5.701700e+01 -5.658387e+01 0
-5.482704e+01 -6.240327e+01 0
-3.776355e+01 -6.698232e+01 0
-1.836396e+01 -6.784695e+01 0
5.212842e+00 -3.253252e+01 0
0.000000e+00 0.000000e+00 0
0.000000e+00 0.000000e+00 0
0.000000e+00 0.000000e+00 0
0.000000e+00 0.000000e+00 0
0.000000e+00 1.324873e+01 0
2.075659e+01 3.868272e+01 0
3.695359e+01 3.387228e+01 0
0.000000e+00 -3.604855e-14 0
0.000000e+00 0.000000e+00 0
0.000000e+00 0.000000e+00 0
0.000000e+00 0.000000e+00 0
0.000000e+00 0.000000e+00 0
0.000000e+00 0.000000e+00 0
0.000000e+00 5.113156e+01 0
3.100891e+01 3.320005e+01 0
-9.421224e+01 -5.124952e+01 0
-6.749628e+01 -7.205910e+01 0
-4.968298e+01 -8.087384e+01 0
-3.686625e+01 -8.285741e+01 0
-2.285589e+01 -4.072466e+01 0
0.000000e+00 0.000000e+00 0
0.000000e+00 0.000000e+00 0
0.000000e+00 0.000000e+00 0
0.000000e+00 0.000000e+00 0
0.000000e+00 3.467133e-15 0
0.000000e+00 2.543398e+01 0
3.313219e+01 6.226346e+01 0
0.000000e+00 -1.541386e-13 0
0.000000e+00 0.000000e+00 0
0.000000e+00 0.000000e+00 0
0.000000e+00 0.000000e+00 0
0.000000e+00 0.000000e+00 0
0.000000e+00 0.000000e+00 0
0.000000e+00 5.113156e+01 0
6.735040e+00 5.455047e+01 0
-1.038684e+02 -5.423483e+01 0
-7.239695e+01 -1.072699e+02 0
-5.255959e+01 -9.784440e+01 0
-4.102864e+01 -9.487728e+01 0
-3.179540e+01 -4.664902e+01 0
-1.648393e+01 0.000000e+00 0
0.000000e+00 0.000000e+00 0
0.000000e+00 0.000000e+00 0
0.000000e+00 0.000000e+00 0
0.000000e+00 0.000000e+00 0
0.000000e+00 0.000000e+00 0
0.000000e+00 6.311479e+01 0
0.000000e+00 -2.684995e-13 0
0.000000e+00 0.000000e+00 0
0.000000e+00 0.000000e+00 0
0.000000e+00 0.000000e+00 0
0.000000e+00 0.000000e+00 0
0.000000e+00 0.000000e+00 0
0.000000e+00 5.113156e+01 0
1.758808e+01 4.758837e+01 0
-8.355149e+01 -6.857104e+01 0
-6.097887e+01 -1.237566e+02 0
-4.511373e+01 -1.124798e+02 0
-3.607610e+01 -1.040969e+02 0
-3.081554e+01 -9.868385e+01 0
-3.081554e+01 -4.833801e+01 0
0.000000e+00 0.000000e+00 0
0.000000e+00 0.000000e+00 0
0.000000e+00 0.000000e+00 0
0.000000e+00 0.000000e+00 0
0.000000e+00 0.000000e+00 0
0.000000e+00 6.311479e+01 0
0.000000e+00 -2.784439e-13 0
0.000000e+00 0.000000e+00 0
0.000000e+00 0.000000e+00 0
0.000000e+00 0.000000e+00 0
0.000000e+00 0.000000e+00 0
0.000000e+00 0.000000e+00 0
0.000000e+00 5.113156e+01 0
6.850070e+01 6.221009e+01 0
-3.187016e+01 -6.931883e+01 0
-3.382857e+01 -1.459988e+02 0
-3.061960e+01 -1.229358e+02 0
-2.737972e+01 -1.096018e+02 0
-2.488463e+01 -1.006054e+02 0
-2.344907e+01 -4.833801e+01 0
0.000000e+00 0.000000e+00 0
0.000000e+00 0.000000e+00 0
0.000000e+00 0.000000e+00 0
0.000000e+00 0.000000e+00 0
0.000000e+00 0.000000e+00 0
0.000000e+00 6.311479e+01 0
0.000000e+00 -2.684995e-13 0
0.000000e+00 0.000000e+00 0
0.000000e+00 0.000000e+00 0
0.000000e+00 0.000000e+00 0
0.000000e+00 0.000000e+00 0
0.000000e+00 0.000000e+00 0
0.000000e+00 0.000000e+00 0
0.000000e+00 1.107853e+01 0
9.999942e+00 -5.006363e+01 0
-7.212407e+00 -1.231042e+02 0
-1.569153e+01 -1.189775e+02 0
-1.799149e+01 -1.098753e+02 0
-1.785498e+01 -1.026443e+02 0
-1.566984e+01 -4.978445e+01 0
0.000000e+00 0.000000e+00 0
0.000000e+00 0.000000e+00 0
0.000000e+00 0.000000e+00 0
0.000000e+00 0.000000e+00 0
0.000000e+00 0.000000e+00 0
0.000000e+00 6.311479e+01 0
0.000000e+00 -2.684995e-13 0
0.000000e+00 0.000000e+00 0
0.000000e+00 0.000000e+00 0
0.000000e+00 0.000000e+00 0
0.000000e+00 0.000000e+00 0
0.000000e+00 0.000000e+00 0
0.000000e+00 0.000000e+00 0
0.000000e+00 0.000000e+00 0
0.000000e+00 -5.000000e+01 0
0.000000e+00 -1.066093e+02 0
-7.285511e+00 -1.116263e+02 0
-1.097164e+01 -1.074219e+02 0
-1.208986e+01 -1.029447e+02 0
-1.115217e+01 -5.053971e+01 0
0.000000e+00 0.000000e+00 0
0.000000e+00 0.000000e+00 0
0.000000e+00 0.000000e+00 0
0.000000e+00 0.000000e+00 0
0.000000e+00 0.000000e+00 0
0.000000e+00 6.311479e+01 0
0.000000e+00 -2.684995e-13 0
0.000000e+00 0.000000e+00 0
0.000000e+00 0.000000e+00 0
0.000000e+00 0.000000e+00 0
0.000000e+00 0.000000e+00 0
0.000000e+00 0.000000e+00 0
0.000000e+00 0.000000e+00 0
0.000000e+00 0.000000e+00 0
0.000000e+00 -5.000000e+01 0
0.000000e+00 -1.038959e+02 0
-3.746024e+00 -1.071973e+02 0
-6.615149e+00 -1.050346e+02 0
-7.843262e+00 -1.024624e+02 0
-8.078216e+00 -5.072924e+01 0
0.000000e+00 0.000000e+00 0
0.000000e+00 0.000000e+00 0
0.000000e+00 0.000000e+00 0
0.000000e+00 0.000000e+00 0
0.000000e+00 0.000000e+00 0
0.000000e+00 6.311479e+01 0
0.000000e+00 -2.684995e-13 0
0.000000e+00 0.000000e+00 0
0.000000e+00 0.000000e+00 0
0.000000e+00 0.000000e+00 0
0.000000e+00 0.000000e+00 0
0.000000e+00 0.000000e+00 0
0.000000e+00 0.000000e+00 0
0.000000e+00 0.000000e+00 0
0.000000e+00 -5.000000e+01 0
0.000000e+00 -1.023781e+02 0
-2.095195e+00 -1.045042e+02 0
-4.015819e+00 -1.032937e+02 0
-4.957933e+00 -1.014705e+02 0
-5.457805e+00 -5.030297e+01 0
0.000000e+00 0.000000e+00 0
0.000000e+00 0.000000e+00 0
0.000000e+00 0.000000e+00 0
0.000000e+00 0.000000e+00 0
0.000000e+00 0.000000e+00 0
0.000000e+00 6.311479e+01 0
0.000000e+00 -2.684995e-13 0
0.000000e+00 0.000000e+00 0
0.000000e+00 0.000000e+00 0
0.000000e+00 0.000000e+00 0
0.000000e+00 0.000000e+00 0
0.000000e+00 0.000000e+00 0
0.000000e+00 0.000000e+00 0
0.000000e+00 0.000000e+00 0
0.000000e+00 -5.000000e+01 0
0.000000e+00 -1.014855e+02 0
-1.225517e+00 -1.028518e+02 0
-2.457813e+00 -1.021501e+02 0
-3.094674e+00 -1.010095e+02 0
-3.448771e+00 -5.022558e+01 0
0.000000e+00 0.000000e+00 0
0.000000e+00 0.000000e+00 0
0.000000e+00 0.000000e+00 0
0.000000e+00 0.000000e+00 0
0.000000e+00 0.000000e+00 0
0.000000e+00 6.311479e+01 0
0.000000e+00 -2.684995e-13 0
0.000000e+00 0.000000e+00 0
0.000000e+00 0.000000e+00 0
0.000000e+00 0.000000e+00 0
0.000000e+00 0.000000e+00 0
0.000000e+00 0.000000e+00 0
0.000000e+00 0.000000e+00 0
0.000000e+00 0.000000e+00 0
0.000000e+00 -5.000000e+01 0
0.000000e+00 -1.009456e+02 0
-7.359838e-01 -1.018301e+02 0
-1.514921e+00 -1.014103e+02 0
-1.932686e+00 -1.004721e+02 0
-2.259502e+00 -4.994620e+01 0
0.000000e+00 0.000000e+00 0
0.000000e+00 0.000000e+00 0
0.000000e+00 0.000000e+00 0
0.000000e+00 0.000000e+00 0
0.000000e+00 0.000000e+00 0
0.000000e+00 6.311479e+01 0
0.000000e+00 -2.684995e-13 0
0.000000e+00 0.000000e+00 0
0.000000e+00 0.000000e+00 0
0.000000e+00 0.000000e+00 0
0.000000e+00 0.000000e+00 0
0.000000e+00 0.000000e+00 0
0.000000e+00 0.000000e+00 0
0.000000e+00 0.000000e+00 0
0.000000e+00 -5.000000e+01 0
0.000000e+00 -1.006141e+02 0
-4.493049e-01 -1.011955e+02 0
-9.391987e-01 -1.009444e+02 0
-1.205030e+00 -1.002593e+02 0
-1.261344e+00 -4.989629e+01 0
0.000000e+00 0.000000e+00 0
0.000000e+00 0.000000e+00 0
0.000000e+00 0.000000e+00 0
0.000000e+00 0.000000e+00 0
0.000000e+00 0.000000e+00 0
0.000000e+00 6.311479e+01 0
0.000000e+00 -2.684995e-13 0
0.000000e+00 0.000000e+00 0
0.000000e+00 0.000000e+00 0
0.000000e+00 0.000000e+00 0
0.000000e+00 0.000000e+00 0
0.000000e+00 0.000000e+00 0
0.000000e+00 0.000000e+00 0
0.000000e+00 0.000000e+00 0
0.000000e+00 -5.000000e+01 0
0.000000e+00 -1.004085e+02 0
-2.778819e-01 -1.007994e+02 0
-5.862873e-01 -1.006489e+02 0
-7.576233e-01 -1.001475e+02 0
-7.331043e-01 -4.988945e+01 0
0.000000e+00 0.000000e+00 0
0.000000e+00 0.000000e+00 0
0.000000e+00 0.000000e+00 0
0.000000e+00 0.000000e+00 0
0.000000e+00 0.000000e+00 0
0.000000e+00 6.311479e+01 0
0.000000e+00 -2.684995e-13 0
0.000000e+00 0.000000e+00 0
0.000000e+00 0.000000e+00 0
0.000000e+00 0.000000e+00 0
0.000000e+00 0.000000e+00 0
0.000000e+00 0.000000e+00 0
0.000000e+00 0.000000e+00 0
0.000000e+00 0.000000e+00 0
0.000000e+00 -5.000000e+01 0
0.000000e+00 -1.002799e+02 0
-1.741920e-01 -1.005506e+02 0
-3.693828e-01 -1.004610e+02 0
-4.805657e-01 -1.001113e+02 0
-4.574818e-01 -4.992099e+01 0
0.000000e+00 0.000000e+00 0
0.000000e+00 0.000000e+00 0
0.000000e+00 0.000000e+00 0
0.000000e+00 0.000000e+00 0
0.000000e+00 0.000000e+00 0
0.000000e+00 6.311479e+01 0
0.000000e+00 -2.684995e-13 0
0.000000e+00 0.000000e+00 0
0.000000e+00 0.000000e+00 0
0.000000e+00 0.000000e+00 0
0.000000e+00 0.000000e+00 0
0.000000e+00 0.000000e+00 0
0.000000e+00 0.000000e+00 0
0.000000e+00 0.000000e+00 0
0.000000e+00 -5.000000e+01 0
0.000000e+00 -1.001986e+02 0
-1.110476e-01 -1.003928e+02 0
-2.358847e-01 -1.003402e+02 0
-3.091810e-01 -1.000587e+02 0
-3.380368e-01 -4.991271e+01 0
0.000000e+00 0.000000e+00 0
0.000000e+00 0.000000e+00 0
0.000000e+00 0.000000e+00 0
0.000000e+00 0.000000e+00 0
0.000000e+00 0.000000e+00 0
0.000000e+00 6.311479e+01 0
0.000000e+00 -2.684995e-13 0
0.000000e+00 0.000000e+00 0
0.000000e+00 0.000000e+00 0
0.000000e+00 0.000000e+00 0
0.000000e+00 0.000000e+00 0
0.000000e+00 0.000000e+00 0
0.000000e+00 0.000000e+00 0
0.000000e+00 0.000000e+00 0
0.000000e+00 -5.000000e+01 0
0.000000e+00 -1.001465e+02 0
-7.241924e-02 -1.002914e+02 0
-1.536262e-01 -1.002614e+02 0
-2.030164e-01 -1.000084e+02 0
-1.865678e-01 -4.989192e+01 0
0.000000e+00 0.000000e+00 0
0.000000e+00 0.000000e+00 0
0.000000e+00 0.000000e+00 0
0.000000e+00 0.000000e+00 0
0.000000e+00 0.000000e+00 0
0.000000e+00 6.311479e+01 0
0.000000e+00 -2.684995e-13 0
0.000000e+00 0.000000e+00 0
0.000000e+00 0.000000e+00 0
0.000000e+00 0.000000e+00 0
0.000000e+00 0.000000e+00 0
0.000000e+00 0.000000e+00 0
0.000000e+00 0.000000e+00 0
0.000000e+00 0.000000e+00 0
0.000000e+00 -5.000000e+01 0
0.000000e+00 -1.001123e+02 0
-4.870645e-02 -1.002247e+02 0
-1.028937e-01 -1.002086e+02 0
-1.374653e-01 -1.000255e+02 0
-9.817016e-02 -4.992929e+01 0
0.000000e+00 0.000000e+00 0
0.000000e+00 0.000000e+00 0
0.000000e+00 0.000000e+00 0
0.000000e+00 0.000000e+00 0
0.000000e+00 0.000000e+00 0
0.000000e+00 6.311479e+01 0
0.000000e+00 -2.684995e-13 0
0.000000e+00 0.000000e+00 0
0.000000e+00 0.000000e+00 0
0.000000e+00 0.000000e+00 0
0.000000e+00 0.000000e+00 0
0.000000e+00 0.000000e+00 0
0.000000e+00 0.000000e+00 0
0.000000e+00 0.000000e+00 0
0.000000e+00 -5.000000e+01 0
0.000000e+00 -1.000892e+02 0
-3.410722e-02 -1.001795e+02 0
-7.158246e-02 -1.001719e+02 0
-9.700002e-02 -1.000132e+02 0
-2.681803e-02 -4.993151e+01 0
0.000000e+00 0.000000e+00 0
0.000000e+00 0.000000e+00 0
0.000000e+00 0.000000e+00 0
0.000000e+00 0.000000e+00 0
0.000000e+00 0.000000e+00 0
0.000000e+00 6.311479e+01 0
0.000000e+00 -2.684995e-13 0
0.000000e+00 0.000000e+00 0
0.000000e+00 0.000000e+00 0
0.000000e+00 0.000000e+00 0
0.000000e+00 0.000000e+00 0
0.000000e+00 0.000000e+00 0
0.000000e+00 0.000000e+00 0
0.000000e+00 0.000000e+00 0
0.000000e+00 -5.000000e+01 0
0.000000e+00 -1.000729e+02 0
-2.508993e-02 -1.001475e+02 0
-5.222914e-02 -1.001452e+02 0
-7.196071e-02 -1.000706e+02 0
-3.985740e-03 -5.000000e+01 0
0.000000e+00 0.000000e+00 0
0.000000e+00 0.000000e+00 0
0.000000e+00 0.000000e+00 0
0.000000e+00 0.000000e+00 0
0.000000e+00 0.000000e+00 0
0.000000e+00 6.311479e+01 0
0.000000e+00 -2.684995e-13 0
0.000000e+00 0.000000e+00 0
0.000000e+00 0.000000e+00 0
0.000000e+00 0.000000e+00 0
0.000000e+00 0.000000e+00 0
0.000000e+00 0.000000e+00 0
0.000000e+00 0.000000e+00 0
0.000000e+00 0.000000e+00 0
0.000000e+00 -5.000000e+01 0
0.000000e+00 -1.000609e+02 0
-1.949775e-02 -1.001238e+02 0
-4.024283e-02 -1.001247e+02 0
-5.645926e-02 -1.000618e+02 0
-9.405760e-02 -5.000000e+01 0
0.000000e+00 0.000000e+00 0
0.000000e+00 0.000000e+00 0
0.000000e+00 0.000000e+00 0
0.000000e+00 0.000000e+00 0
0.000000e+00 0.000000e+00 0
0.000000e+00 0.000000e+00 0
0.000000e+00 0.000000e+00 0
0.000000e+00 0.000000e+00 0
0.000000e+00 0.000000e+00 0
0.000000e+00 0.000000e+00 0
0.000000e+00 0.000000e+00 0
0.000000e+00 0.000000e+00 0
0.000000e+00 0.000000e+00 0
0.000000e+00 0.000000e+00 0
0.000000e+00 -5.000000e+01 0
0.000000e+00 -1.000514e+02 0
-1.600582e-02 -1.001052e+02 0
-3.278800e-02 -1.001080e+02 0
-4.677553e-02 -1.000164e+02 0
-4.677553e-02 -4.996212e+01 0
0.000000e+00 0.000000e+00 0
0.000000e+00 0.000000e+00 0
0.000000e+00 0.000000e+00 0
0.000000e+00 0.000000e+00 0
0.000000e+00 0.000000e+00 0
0.000000e+00 0.000000e+00 0
0.000000e+00 0.000000e+00 0
0.000000e+00 0.000000e+00 0
0.000000e+00 0.000000e+00 0
0.000000e+00 0.000000e+00 0
0.000000e+00 0.000000e+00 0
0.000000e+00 0.000000e+00 0
0.000000e+00 0.000000e+00 0
0.000000e+00 0.000000e+00 0
0.000000e+00 -5.000000e+01 0
0.000000e+00 -1.000436e+02 0
-1.379320e-02 -1.000897e+02 0
-2.809811e-02 -1.000937e+02 0
-4.069670e-02 -1.000477e+02 0
-3.098365e-03 -5.000000e+01 0
0.000000e+00 0.000000e+00 0
0.000000e+00 0.000000e+00 0
0.000000e+00 0.000000e+00 0
0.000000e+00 0.000000e+00 0
0.000000e+00 0.000000e+00 0
0.000000e+00 0.000000e+00 0
0.000000e+00 0.000000e+00 0
0.000000e+00 0.000000e+00 0
0.000000e+00 0.000000e+00 0
0.000000e+00 0.000000e+00 0
0.000000e+00 0.000000e+00 0
0.000000e+00 0.000000e+00 0
0.000000e+00 0.000000e+00 0
0.000000e+00 0.000000e+00 0
0.000000e+00 -5.000000e+01 0
0.000000e+00 -1.000369e+02 0
-1.234889e-02 -1.000762e+02 0
-2.508300e-02 -1.000809e+02 0
-3.682225e-02 -1.000416e+02 0
-3.682225e-02 -5.000000e+01 0
0.000000e+00 0.000000e+00 0
0.000000e+00 0.000000e+00 0
0.000000e+00 0.000000e+00 0
0.000000e+00 0.000000e+00 0
0.000000e+00 0.000000e+00 0
0.000000e+00 0.000000e+00 0
0.000000e+00 0.000000e+00 0
0.000000e+00 0.000000e+00 0
0.000000e+00 0.000000e+00 0
0.000000e+00 0.000000e+00 0
0.000000e+00 0.000000e+00 0
0.000000e+00 0.000000e+00 0
0.000000e+00 0.000000e+00 0
0.000000e+00 0.000000e+00 0
0.000000e+00 -5.000000e+01 0
0.000000e+00 -1.000308e+02 0
-1.134492e-02 -1.000640e+02 0
-2.304639e-02 -1.000690e+02 0
-3.421236e-02 -1.000358e+02 0
-3.421236e-02 -5.000000e+01 0
0.000000e+00 0.000000e+00 0
0.000000e+00 0.000000e+00 0
0.000000e+00 0.000000e+00 0
0.000000e+00 0.000000e+00 0
0.000000e+00 0.000000e+00 0
0.000000e+00 0.000000e+00 0
0.000000e+00 0.000000e+00 0
0.000000e+00 0.000000e+00 0
0.000000e+00 0.000000e+00 0
0.000000e+00 0.000000e+00 0
0.000000e+00 0.000000e+00 0
0.000000e+00 0.000000e+00 0
0.000000e+00 0.000000e+00 0
0.000000e+00 0.000000e+00 0
0.000000e+00 -5.000000e+01 0
0.000000e+00 -1.000251e+02 0
-1.055954e-02 -1.000526e+02 0
-2.152584e-02 -1.000578e+02 0
-3.228483e-02 -1.000303e+02 0
-3.228483e-02 -5.000000e+01 0
0.000000e+00 0.000000e+00 0
0.000000e+00 0.000000e+00 0
0.000000e+00 0.000000e+00 0
0.000000e+00 0.000000e+00 0
0.000000e+00 0.000000e+00 0
0.000000e+00 0.000000e+00 0
0.000000e+00 0.000000e+00 0
0.000000e+00 0.000000e+00 0
0.000000e+00 0.000000e+00 0
0.000000e+00 0.000000e+00 0
0.000000e+00 0.000000e+00 0
0.000000e+00 0.000000e+00 0
0.000000e+00 0.000000e+00 0
0.000000e+00 0.000000e+00 0
0.000000e+00 -5.000000e+01 0
0.000000e+00 -1.000199e+02 0
-9.828828e-03 -1.000420e+02 0
-2.019323e-02 -1.000472e+02 0
-3.061922e-02 -1.000250e+02 0
-3.061922e-02 -5.000000e+01 0
0.000000e+00 0.000000e+00 0
0.000000e+00 0.000000e+00 0
0.000000e+00 0.000000e+00 0
0.000000e+00 0.000000e+00 0
0.000000e+00 0.000000e+00 0
0.000000e+00 0.000000e+00 0
0.000000e+00 0.000000e+00 0
0.000000e+00 0.000000e+00 0
0.000000e+00 0.000000e+00 0
0.000000e+00 0.000000e+00 0
0.000000e+00 0.000000e+00 0
0.000000e+00 0.000000e+00 0
0.000000e+00 0.000000e+00 0
0.000000e+00 0.000000e+00 0
0.000000e+00 -5.000000e+01 0
0.000000e+00 -1.000150e+02 0
-9.012503e-03 -1.000321e+02 0
-1.877990e-02 -1.000369e+02 0
-2.887228e-02 -1.000198e+02 0
-2.887228e-02 -5.000000e+01 0
0.000000e+00 0.000000e+00 0
0.000000e+00 0.000000e+00 0
0.000000e+00 0.000000e+00 0
0.000000e+00 0.000000e+00 0
0.000000e+00 0.000000e+00 0
0.000000e+00 0.000000e+00 0
0.000000e+00 0.000000e+00 0
0.000000e+00 0.000000e+00 0
0.000000e+00 0.000000e+00 0
0.000000e+00 0.000000e+00 0
0.000000e+00 0.000000e+00 0
0.000000e+00 0.000000e+00 0
0.000000e+00 0.000000e+00 0
0.000000e+00 0.000000e+00 0
0.000000e+00 -5.000000e+01 0
0.000000e+00 -1.000105e+02 0
-7.970531e-03 -1.000228e+02 0
-1.702261e-02 -1.000271e+02 0
-2.670073e-02 -1.000148e+02 0
-2.670073e-02 -5.000000e+01 0
0.000000e+00 0.000000e+00 0
0.000000e+00 0.000000e+00 0
0.000000e+00 0.000000e+00 0
0.000000e+00 0.000000e+00 0
0.000000e+00 0.000000e+00 0
0.000000e+00 0.000000e+00 0
0.000000e+00 0.000000e+00 0
0.000000e+00 0.000000e+00 0
0.000000e+00 0.000000e+00 0
0.000000e+00 0.000000e+00 0
0.000000e+00 0.000000e+00 0
0.000000e+00 0.000000e+00 0
0.000000e+00 0.000000e+00 0
0.000000e+00 0.000000e+00 0
0.000000e+00 -5.000000e+01 0
0.000000e+00 -1.000066e+02 0
-6.553299e-03 -1.000145e+02 0
-1.461964e-02 -1.000180e+02 0
-2.367976e-02 -1.000101e+02 0
-6.122442e-02 -5.000000e+01 0
0.000000e+00 0.000000e+00 0
0.000000e+00 0.000000e+00 0
0.000000e+00 0.000000e+00 0
0.000000e+00 0.000000e+00 0
0.000000e+00 0.000000e+00 0
0.000000e+00 0.000000e+00 0
0.000000e+00 0.000000e+00 0
0.000000e+00 0.000000e+00 0
0.000000e+00 0.000000e+00 0
0.000000e+00 0.000000e+00 0
0.000000e+00 0.000000e+00 0
0.000000e+00 0.000000e+00 0
0.000000e+00 0.000000e+00 0
0.000000e+00 0.000000e+00 0
0.000000e+00 -5.000000e+01 0
0.000000e+00 -1.000034e+02 0
-4.627625e-03 -1.000076e+02 0
-1.120104e-02 -1.000099e+02 0
-1.915463e-02 -9.996787e+01 0
-1.915463e-02 -4.996217e+01 0
0.000000e+00 0.000000e+00 0
0.000000e+00 0.000000e+00 0
0.000000e+00 0.000000e+00 0
0.000000e+00 0.000000e+00 0
0.000000e+00 0.000000e+00 0
0.000000e+00 0.000000e+00 0
0.000000e+00 0.000000e+00 0
0.000000e+00 0.000000e+00 0
0.000000e+00 0.000000e+00 0
0.000000e+00 0.000000e+00 0
0.000000e+00 0.000000e+00 0
0.000000e+00 0.000000e+00 0
0.000000e+00 0.000000e+00 0
0.000000e+00 0.000000e+00 0
0.000000e+00 -5.000000e+01 0
0.000000e+00 -1.000011e+02 0
-2.218528e-03 -1.000025e+02 0
-6.369676e-03 -1.000034e+02 0
-1.203025e-02 -1.000021e+02 0
2.551441e-02 -5.000000e+01 0
0.000000e+00 0.000000e+00 0
0.000000e+00 0.000000e+00 0
0.000000e+00 0.000000e+00 0
0.000000e+00 0.000000e+00 0
0.000000e+00 0.000000e+00 0
0.000000e+00 0.000000e+00 0
0.000000e+00 0.000000e+00 0
0.000000e+00 0.000000e+00 0
0.000000e+00 0.000000e+00 0
0.000000e+00 0.000000e+00 0
0.000000e+00 0.000000e+00 0
0.000000e+00 0.000000e+00 0
0.000000e+00 0.000000e+00 0
0.000000e+00 0.000000e+00 0
0.000000e+00 -5.000000e+01 0
0.000000e+00 -1.000000e+02 0
-3.793498e-18 -1.000000e+02 0
-1.487051e-17 -1.000000e+02 0
-3.138685e-17 -1.000000e+02 0
-3.156190e-17 -5.000000e+01 0
0.000000e+00 0.000000e+00 0
0.000000e+00 0.000000e+00 0
0.000000e+00 0.000000e+00 0
0.000000e+00 0.000000e+00 0
0.000000e+00 0.000000e+00 0
0.000000e+00 0.000000e+00 0
0.000000e+00 0.000000e+00 0
</DataArray>
<DataArray Name="Type and Neighbourhood" type="Float64" format="ascii" NumberOfComponents="3">
1.000000e+01 0.000000e+00 0
1.000000e+01 0.000000e+00 0
1.000000e+01 0.000000e+00 0
1.000000e+01 0.000000e+00 0
1.000000e+01 0.000000e+00 0
1.100000e+01 2.000000e+00 0
0.000000e+00 0.000000e+00 0
0.000000e+00 0.000000e+00 0
0.000000e+00 0.000000e+00 0
0.000000e+00 0.000000e+00 0
0.000000e+00 0.000000e+00 0
1.100000e+01 1.000000e+00 0
1.100000e+01 1.000000e+00 0
1.100000e+01 1.000000e+00 0