<?xml version="1.0"?>
<VTKFile type="StructuredGrid">
<StructuredGrid WholeExtent="0 78 0 28 0 0 ">
<Piece Extent="0 78 0 28 0 0 ">
<Points>
<DataArray type="Float64" format="ascii" NumberOfComponents="3">
0.000000e+00 0.000000e+00 0.000000e+00
1.025641e-01 0.000000e+00 0.000000e+00
2.051282e-01 0.000000e+00 0.000000e+00
3.076923e-01 0.000000e+00 0.000000e+00
4.102564e-01 0.000000e+00 0.000000e+00
5.128205e-01 0.000000e+00 0.000000e+00
6.153846e-01 0.000000e+00 0.000000e+00
7.179487e-01 0.000000e+00 0.000000e+00
8.205128e-01 0.000000e+00 0.000000e+00
9.230769e-01 0.000000e+00 0.000000e+00
1.025641e+00 0.000000e+00 0.000000e+00
1.128205e+00 0.000000e+00 0.000000e+00
1.230769e+00 0.000000e+00 0.000000e+00
1.333333e+00 0.000000e+00 0.000000e+00
1.435897e+00 0.000000e+00 0.000000e+00
1.538462e+00 0.000000e+00 0.000000e+00
1.641026e+00 0.000000e+00 0.000000e+00
1.743590e+00 0.000000e+00 0.000000e+00
1.846154e+00 0.000000e+00 0.000000e+00
1.948718e+00 0.000000e+00 0.000000e+00
2.051282e+00 0.000000e+00 0.000000e+00
2.153846e+00 0.000000e+00 0.000000e+00
2.256410e+00 0.000000e+00 0.000000e+00
2.358974e+00 0.000000e+00 0.000000e+00
2.461538e+00 0.000000e+00 0.000000e+00
2.564103e+00 0.000000e+00 0.000000e+00
2.666667e+00 0.000000e+00 0.000000e+00
2.769231e+00 0.000000e+00 0.000000e+00
2.871795e+00 0.000000e+00 0.000000e+00
2.974359e+00 0.000000e+00 0.000000e+00
3.076923e+00 0.000000e+00 0.000000e+00
3.179487e+00 0.000000e+00 0.000000e+00
3.282051e+00 0.000000e+00 0.000000e+00
3.384615e+00 0.000000e+00 0.000000e+00
3.487179e+00 0.000000e+00 0.000000e+00
3.589744e+00 0.000000e+00 0.000000e+00
3.692308e+00 0.000000e+00 0.000000e+00
3.794872e+00 0.000000e+00 0.000000e+00
3.897436e+00 0.000000e+00 0.000000e+00
4.000000e+00 0.000000e+00 0.000000e+00
4.102564e+00 0.000000e+00 0.000000e+00
4.205128e+00 0.000000e+00 0.000000e+00
4.307692e+00 0.000000e+00 0.000000e+00
4.410256e+00 0.000000e+00 0.000000e+00
4.512821e+00 0.000000e+00 0.000000e+00
4.615385e+00 0.000000e+00 0.000000e+00
4.717949e+00 0.000000e+00 0.000000e+00
4.820513e+00 0.000000e+00 0.000000e+00
4.923077e+00 0.000000e+00 0.000000e+00
5.025641e+00 0.000000e+00 0.000000e+00
5.128205e+00 0.000000e+00 0.000000e+00
5.230769e+00 0.000000e+00 0.000000e+00
5.333333e+00 0.000000e+00 0.000000e+00
5.435897e+00 0.000000e+00 0.000000e+00
5.538462e+00 0.000000e+00 0.000000e+00
5.641026e+00 0.000000e+00 0.000000e+00
5.743590e+00 0.000000e+00 0.000000e+00
5.846154e+00 0.000000e+00 0.000000e+00
5.948718e+00 0.000000e+00 0.000000e+00
6.051282e+00 0.000000e+00 0.000000e+00
6.153846e+00 0.000000e+00 0.000000e+00
6.256410e+00 0.000000e+00 0.000000e+00
6.358974e+00 0.000000e+00 0.000000e+00
6.461538e+00 0.000000e+00 0.000000e+00
6.564103e+00 0.000000e+00 0.000000e+00
6.666667e+00 0.000000e+00 0.000000e+00
6.769231e+00 0.000000e+00 0.000000e+00
6.871795e+00 0.000000e+00 0.000000e+00
6.974359e+00 0.000000e+00 0.000000e+00
7.076923e+00 0.000000e+00 0.000000e+00
7.179487e+00 0.000000e+00 0.000000e+00
7.282051e+00 0.000000e+00 0.000000e+00
7.384615e+00 0.000000e+00 0.000000e+00
7.487179e+00 0.000000e+00 0.000000e+00
7.589744e+00 0.000000e+00 0.000000e+00
7.692308e+00 0.000000e+00 0.000000e+00
7.794872e+00 0.000000e+00 0.000000e+00
7.897436e+00 0.000000e+00 0.000000e+00
8.000000e+00 0.000000e+00 0.000000e+00
0.000000e+00 1.071429e-01 0.000000e+00
1.025641e-01 1.071429e-01 0.000000e+00
2.051282e-01 1.071429e-01 0.000000e+00
3.076923e-01 1.071429e-01 0.000000e+00
4.102564e-01 1.071429e-01 0.000000e+00
5.128205e-01 1.071429e-01 0.000000e+00
6.153846e-01 1.071429e-01 0.000000e+00
7.179487e-01 1.071429e-01 0.000000e+00
8.205128e-01 1.071429e-01 0.000000e+00
9.230769e-01 1.071429e-01 0.000000e+00
1.025641e+00 1.071429e-01 0.000000e+00
1.128205e+00 1.071429e-01 0.000000e+00
1.230769e+00 1.071429e-01 0.000000e+00
1.333333e+00 1.071429e-01 0.000000e+00
1.435897e+00 1.071429e-01 0.000000e+00
1.538462e+00 1.071429e-01 0.000000e+00
1.641026e+00 1.071429e-01 0.000000e+00
1.743590e+00 1.071429e-01 0.000000e+00
1.846154e+00 1.071429e-01 0.000000e+00
1.948718e+00 1.071429e-01 0.000000e+00
2.051282e+00 1.071429e-01 0.000000e+00
2.153846e+00 1.071429e-01 0.000000e+00
2.256410e+00 1.071429e-01 0.000000e+00
2.358974e+00 1.071429e-01 0.000000e+00
2.461538e+00 1.071429e-01 0.000000e+00
2.564103e+00 1.071429e-01 0.000000e+00
2.666667e+00 1.071429e-01 0.000000e+00
2.769231e+00 1.071429e-01 0.000000e+00
2.871795e+00 1.071429e-01 0.000000e+00
2.974359e+00 1.071429e-01 0.000000e+00
3.076923e+00 1.071429e-01 0.000000e+00
3.179487e+00 1.071429e-01 0.000000e+00
3.282051e+00 1.071429e-01 0.000000e+00
3.384615e+00 1.071429e-01 0.000000e+00
3.487179e+00 1.071429e-01 0.000000e+00
3.589744e+00 1.071429e-01 0.000000e+00
3.692308e+00 1.071429e-01 0.000000e+00
3.794872e+00 1.071429e-01 0.000000e+00
3.897436e+00 1.071429e-01 0.000000e+00
4.000000e+00 1.071429e-01 0.000000e+00
4.102564e+00 1.071429e-01 0.000000e+00
4.205128e+00 1.071429e-01 0.000000e+00
4.307692e+00 1.071429e-01 0.000000e+00
4.410256e+00 1.071429e-01 0.000000e+00
4.512821e+00 1.071429e-01 0.000000e+00
4.615385e+00 1.071429e-01 0.000000e+00
4.717949e+00 1.071429e-01 0.000000e+00
4.820513e+00 1.071429e-01 0.000000e+00
4.923077e+00 1.071429e-01 0.000000e+00
5.025641e+00 1.071429e-01 0.000000e+00
5.128205e+00 1.071429e-01 0.000000e+00
5.230769e+00 1.071429e-01 0.000000e+00
5.333333e+00 1.071429e-01 0.000000e+00
5.435897e+00 1.071429e-01 0.000000e+00
5.538462e+00 1.071429e-01 0.000000e+00
5.641026e+00 1.071429e-01 0.000000e+00
5.743590e+00 1.071429e-01 0.000000e+00
5.846154e+00 1.071429e-01 0.000000e+00
5.948718e+00 1.071429e-01 0.000000e+00
6.051282e+00 1.071429e-01 0.000000e+00
6.153846e+00 1.071429e-01 0.000000e+00
6.256410e+00 1.071429e-01 0.000000e+00
6.358974e+00 1.071429e-01 0.000000e+00
6.461538e+00 1.071429e-01 0.000000e+00
6.564103e+00 1.071429e-01 0.000000e+00
6.666667e+00 1.071429e-01 0.000000e+00
6.769231e+00 1.071429e-01 0.000000e+00
6.871795e+00 1.071429e-01 0.000000e+00
6.974359e+00 1.071429e-01 0.000000e+00
7.076923e+00 1.071429e-01 0.000000e+00
7.179487e+00 1.071429e-01 0.000000e+00
7.282051e+00 1.071429e-01 0.000000e+00
7.384615e+00 1.071429e-01 0.000000e+00
7.487179e+00 1.071429e-01 0.000000e+00
7.589744e+00 1.071429e-01 0.000000e+00
7.692308e+00 1.071429e-01 0.000000e+00
7.794872e+00 1.071429e-01 0.000000e+00
7.897436e+00 1.071429e-01 0.000000e+00
8.000000e+00 1.071429e-01 0.000000e+00
0.000000e+00 2.142857e-01 0.000000e+00
1.025641e-01 2.142857e-01 0.000000e+00
2.051282e-01 2.142857e-01 0.000000e+00
3.076923e-01 2.142857e-01 0.000000e+00
4.102564e-01 2.142857e-01 0.000000e+00
5.128205e-01 2.142857e-01 0.000000e+00
6.153846e-01 2.142857e-01 0.000000e+00
7.179487e-01 2.142857e-01 0.000000e+00
8.205128e-01 2.142857e-01 0.000000e+00
9.230769e-01 2.142857e-01 0.000000e+00
1.025641e+00 2.142857e-01 0.000000e+00
1.128205e+00 2.142857e-01 0.000000e+00
1.230769e+00 2.142857e-01 0.000000e+00
1.333333e+00 2.142857e-01 0.000000e+00
1.435897e+00 2.142857e-01 0.000000e+00
1.538462e+00 2.142857e-01 0.000000e+00
1.641026e+00 2.142857e-01 0.000000e+00
1.743590e+00 2.142857e-01 0.000000e+00
1.846154e+00 2.142857e-01 0.000000e+00
1.948718e+00 2.142857e-01 0.000000e+00
2.051282e+00 2.142857e-01 0.000000e+00
2.153846e+00 2.142857e-01 0.000000e+00
2.256410e+00 2.142857e-01 0.000000e+00
2.358974e+00 2.142857e-01 0.000000e+00
2.461538e+00 2.142857e-01 0.000000e+00
2.564103e+00 2.142857e-01 0.000000e+00
2.666667e+00 2.142857e-01 0.000000e+00
2.769231e+00 2.142857e-01 0.000000e+00
2.871795e+00 2.142857e-01 0.000000e+00
2.974359e+00 2.142857e-01 0.000000e+00
3.076923e+00 2.142857e-01 0.000000e+00
3.179487e+00 2.142857e-01 0.000000e+00
3.282051e+00 2.142857e-01 0.000000e+00
3.384615e+00 2.142857e-01 0.000000e+00
3.487179e+00 2.142857e-01 0.000000e+00
3.589744e+00 2.142857e-01 0.000000e+00
3.692308e+00 2.142857e-01 0.000000e+00
3.794872e+00 2.142857e-01 0.000000e+00
3.897436e+00 2.142857e-01 0.000000e+00
4.000000e+00 2.142857e-01 0.000000e+00
4.102564e+00 2.142857e-01 0.000000e+00
4.205128e+00 2.142857e-01 0.000000e+00
4.307692e+00 2.142857e-01 0.000000e+00
4.410256e+00 2.142857e-01 0.000000e+00
4.512821e+00 2.142857e-01 0.000000e+00
4.615385e+00 2.142857e-01 0.000000e+00
4.717949e+00 2.142857e-01 0.000000e+00
4.820513e+00 2.142857e-01 0.000000e+00
4.923077e+00 2.142857e-01 0.000000e+00
5.025641e+00 2.142857e-01 0.000000e+00
5.128205e+00 2.142857e-01 0.000000e+00
5.230769e+00 2.142857e-01 0.000000e+00
5.333333e+00 2.142857e-01 0.000000e+00
5.435897e+00 2.142857e-01 0.000000e+00
5.538462e+00 2.142857e-01 0.000000e+00
5.641026e+00 2.142857e-01 0.000000e+00
5.743590e+00 2.142857e-01 0.000000e+00
5.846154e+00 2.142857e-01 0.000000e+00
5.948718e+00 2.142857e-01 0.000000e+00
6.051282e+00 2.142857e-01 0.000000e+00
6.153846e+00 2.142857e-01 0.000000e+00
6.256410e+00 2.142857e-01 0.000000e+00
6.358974e+00 2.142857e-01 0.000000e+00
6.461538e+00 2.142857e-01 0.000000e+00
6.564103e+00 2.142857e-01 0.000000e+00
6.666667e+00 2.142857e-01 0.000000e+00
6.769231e+00 2.142857e-01 0.000000e+00
6.871795e+00 2.142857e-01 0.000000e+00
6.974359e+00 2.142857e-01 0.000000e+00
7.076923e+00 2.142857e-01 0.000000e+00
7.179487e+00 2.142857e-01 0.000000e+00
7.282051e+00 2.142857e-01 0.000000e+00
7.384615e+00 2.142857e-01 0.000000e+00
7.487179e+00 2.142857e-01 0.000000e+00
7.589744e+00 2.142857e-01 0.000000e+00
7.692308e+00 2.142857e-01 0.000000e+00
7.794872e+00 2.142857e-01 0.000000e+00
7.897436e+00 2.142857e-01 0.000000e+00
8.000000e+00 2.142857e-01 0.000000e+00
0.000000e+00 3.214286e-01 0.000000e+00
1.025641e-01 3.214286e-01 0.000000e+00
2.051282e-01 3.214286e-01 0.000000e+00
3.076923e-01 3.214286e-01 0.000000e+00
4.102564e-01 3.214286e-01 0.000000e+00
5.128205e-01 3.214286e-01 0.000000e+00
6.153846e-01 3.214286e-01 0.000000e+00
7.179487e-01 3.214286e-01 0.000000e+00
8.205128e-01 3.214286e-01 0.000000e+00
9.230769e-01 3.214286e-01 0.000000e+00
1.025641e+00 3.214286e-01 0.000000e+00
1.128205e+00 3.214286e-01 0.000000e+00
1.230769e+00 3.214286e-01 0.000000e+00
1.333333e+00 3.214286e-01 0.000000e+00
[...]
<PointData>
<DataArray Name="Velocity" type="Float64" format="ascii" NumberOfComponents="3">
0.000000e+00 0.000000e+00 0
0.000000e+00 0.000000e+00 0
0.000000e+00 0.000000e+00 0
0.000000e+00 0.000000e+00 0
0.000000e+00 0.000000e+00 0
0.000000e+00 0.000000e+00 0
0.000000e+00 0.000000e+00 0
0.000000e+00 0.000000e+00 0
0.000000e+00 0.000000e+00 0
0.000000e+00 0.000000e+00 0
0.000000e+00 0.000000e+00 0
0.000000e+00 0.000000e+00 0
0.000000e+00 0.000000e+00 0
0.000000e+00 0.000000e+00 0
0.000000e+00 0.000000e+00 0
0.000000e+00 0.000000e+00 0
0.000000e+00 0.000000e+00 0
0.000000e+00 0.000000e+00 0
0.000000e+00 0.000000e+00 0
0.000000e+00 0.000000e+00 0
0.000000e+00 0.000000e+00 0
0.000000e+00 0.000000e+00 0
0.000000e+00 0.000000e+00 0
0.000000e+00 0.000000e+00 0
0.000000e+00 0.000000e+00 0
0.000000e+00 0.000000e+00 0
0.000000e+00 0.000000e+00 0
0.000000e+00 0.000000e+00 0
0.000000e+00 0.000000e+00 0
0.000000e+00 0.000000e+00 0
0.000000e+00 0.000000e+00 0
0.000000e+00 0.000000e+00 0
0.000000e+00 0.000000e+00 0
0.000000e+00 0.000000e+00 0
0.000000e+00 0.000000e+00 0
0.000000e+00 0.000000e+00 0
0.000000e+00 0.000000e+00 0
0.000000e+00 0.000000e+00 0
0.000000e+00 0.000000e+00 0
0.000000e+00 0.000000e+00 0
0.000000e+00 0.000000e+00 0
0.000000e+00 0.000000e+00 0
0.000000e+00 0.000000e+00 0
0.000000e+00 0.000000e+00 0
0.000000e+00 0.000000e+00 0
0.000000e+00 0.000000e+00 0
0.000000e+00 0.000000e+00 0
0.000000e+00 0.000000e+00 0
0.000000e+00 0.000000e+00 0
0.000000e+00 0.000000e+00 0
0.000000e+00 0.000000e+00 0
0.000000e+00 0.000000e+00 0
0.000000e+00 0.000000e+00 0
0.000000e+00 0.000000e+00 0
0.000000e+00 0.000000e+00 0
0.000000e+00 0.000000e+00 0
0.000000e+00 0.000000e+00 0
0.000000e+00 0.000000e+00 0
0.000000e+00 0.000000e+00 0
0.000000e+00 0.000000e+00 0
0.000000e+00 0.000000e+00 0
0.000000e+00 0.000000e+00 0
0.000000e+00 0.000000e+00 0
0.000000e+00 0.000000e+00 0
0.000000e+00 0.000000e+00 0
0.000000e+00 0.000000e+00 0
0.000000e+00 0.000000e+00 0
0.000000e+00 0.000000e+00 0
0.000000e+00 0.000000e+00 0
0.000000e+00 0.000000e+00 0
0.000000e+00 0.000000e+00 0
0.000000e+00 0.000000e+00 0
0.000000e+00 0.000000e+00 0
0.000000e+00 0.000000e+00 0
0.000000e+00 0.000000e+00 0
0.000000e+00 0.000000e+00 0
0.000000e+00 0.000000e+00 0
0.000000e+00 0.000000e+00 0
0.000000e+00 0.000000e+00 0
0.000000e+00 0.000000e+00 0
0.000000e+00 0.000000e+00 0
0.000000e+00 0.000000e+00 0
0.000000e+00 0.000000e+00 0
0.000000e+00 0.000000e+00 0
0.000000e+00 0.000000e+00 0
0.000000e+00 0.000000e+00 0
0.000000e+00 0.000000e+00 0
0.000000e+00 0.000000e+00 0
0.000000e+00 0.000000e+00 0
0.000000e+00 0.000000e+00 0
0.000000e+00 0.000000e+00 0
0.000000e+00 0.000000e+00 0
0.000000e+00 0.000000e+00 0
0.000000e+00 0.000000e+00 0
0.000000e+00 0.000000e+00 0
0.000000e+00 0.000000e+00 0
0.000000e+00 0.000000e+00 0
0.000000e+00 0.000000e+00 0
0.000000e+00 0.000000e+00 0
0.000000e+00 0.000000e+00 0
0.000000e+00 0.000000e+00 0
0.000000e+00 0.000000e+00 0
0.000000e+00 0.000000e+00 0
-3.485354e+00 -2.068612e-01 0
-3.485354e+00 -2.068612e-01 0
-2.705440e+00 0.000000e+00 0
-1.178654e+00 0.000000e+00 0
-1.178654e+00 0.000000e+00 0
0.000000e+00 4.735442e-01 0
0.000000e+00 0.000000e+00 0
0.000000e+00 -4.735442e-01 0
0.000000e+00 0.000000e+00 0
0.000000e+00 0.000000e+00 0
0.000000e+00 0.000000e+00 0
0.000000e+00 0.000000e+00 0
0.000000e+00 0.000000e+00 0
0.000000e+00 0.000000e+00 0
0.000000e+00 0.000000e+00 0
0.000000e+00 0.000000e+00 0
0.000000e+00 0.000000e+00 0
0.000000e+00 0.000000e+00 0
0.000000e+00 0.000000e+00 0
0.000000e+00 0.000000e+00 0
0.000000e+00 0.000000e+00 0
0.000000e+00 0.000000e+00 0
0.000000e+00 0.000000e+00 0
0.000000e+00 0.000000e+00 0
0.000000e+00 0.000000e+00 0
0.000000e+00 0.000000e+00 0
0.000000e+00 0.000000e+00 0
0.000000e+00 0.000000e+00 0
0.000000e+00 0.000000e+00 0
0.000000e+00 0.000000e+00 0
0.000000e+00 0.000000e+00 0
0.000000e+00 0.000000e+00 0
0.000000e+00 0.000000e+00 0
0.000000e+00 0.000000e+00 0
0.000000e+00 0.000000e+00 0
0.000000e+00 0.000000e+00 0
0.000000e+00 0.000000e+00 0
0.000000e+00 0.000000e+00 0
0.000000e+00 0.000000e+00 0
0.000000e+00 0.000000e+00 0
0.000000e+00 0.000000e+00 0
0.000000e+00 0.000000e+00 0
0.000000e+00 0.000000e+00 0
0.000000e+00 0.000000e+00 0
0.000000e+00 0.000000e+00 0
0.000000e+00 0.000000e+00 0
0.000000e+00 0.000000e+00 0
0.000000e+00 0.000000e+00 0
0.000000e+00 0.000000e+00 0
0.000000e+00 0.000000e+00 0
0.000000e+00 0.000000e+00 0
0.000000e+00 0.000000e+00 0
0.000000e+00 0.000000e+00 0
0.000000e+00 0.000000e+00 0
0.000000e+00 0.000000e+00 0
0.000000e+00 0.000000e+00 0
0.000000e+00 0.000000e+00 0
0.000000e+00 0.000000e+00 0
0.000000e+00 0.000000e+00 0
0.000000e+00 0.000000e+00 0
0.000000e+00 0.000000e+00 0
0.000000e+00 0.000000e+00 0
0.000000e+00 0.000000e+00 0
0.000000e+00 0.000000e+00 0
0.000000e+00 0.000000e+00 0
0.000000e+00 0.000000e+00 0
0.000000e+00 0.000000e+00 0
0.000000e+00 0.000000e+00 0
0.000000e+00 0.000000e+00 0
0.000000e+00 0.000000e+00 0
0.000000e+00 0.000000e+00 0
0.000000e+00 0.000000e+00 0
0.000000e+00 0.000000e+00 0
-9.150563e-16 9.331215e-02 0
4.226715e-01 9.331215e-02 0
2.513624e-01 0.000000e+00 0
2.513624e-01 0.000000e+00 0
0.000000e+00 0.000000e+00 0
0.000000e+00 -1.235892e-01 0
-2.872485e+00 -3.304504e-01 0
-2.451776e+00 -1.625187e+00 0
-2.234937e+00 -2.971829e+00 0
-1.348591e+00 -2.677621e+00 0
-1.479612e+00 -1.124117e+00 0
-2.285935e-01 3.228446e-01 0
-9.897801e-16 0.000000e+00 0
0.000000e+00 -3.228446e-01 0
0.000000e+00 0.000000e+00 0
0.000000e+00 0.000000e+00 0
0.000000e+00 0.000000e+00 0
0.000000e+00 0.000000e+00 0
0.000000e+00 0.000000e+00 0
0.000000e+00 0.000000e+00 0
0.000000e+00 0.000000e+00 0
0.000000e+00 0.000000e+00 0
0.000000e+00 0.000000e+00 0
0.000000e+00 0.000000e+00 0
0.000000e+00 0.000000e+00 0
0.000000e+00 0.000000e+00 0
0.000000e+00 0.000000e+00 0
0.000000e+00 0.000000e+00 0
0.000000e+00 0.000000e+00 0
0.000000e+00 0.000000e+00 0
0.000000e+00 0.000000e+00 0
0.000000e+00 0.000000e+00 0
0.000000e+00 0.000000e+00 0
0.000000e+00 0.000000e+00 0
0.000000e+00 0.000000e+00 0
0.000000e+00 0.000000e+00 0
0.000000e+00 0.000000e+00 0
0.000000e+00 0.000000e+00 0
0.000000e+00 0.000000e+00 0
0.000000e+00 0.000000e+00 0
0.000000e+00 0.000000e+00 0
0.000000e+00 0.000000e+00 0
0.000000e+00 0.000000e+00 0
0.000000e+00 0.000000e+00 0
0.000000e+00 0.000000e+00 0
0.000000e+00 0.000000e+00 0
0.000000e+00 0.000000e+00 0
0.000000e+00 0.000000e+00 0
0.000000e+00 0.000000e+00 0
0.000000e+00 0.000000e+00 0
0.000000e+00 0.000000e+00 0
0.000000e+00 0.000000e+00 0
0.000000e+00 0.000000e+00 0
0.000000e+00 0.000000e+00 0
0.000000e+00 0.000000e+00 0
0.000000e+00 0.000000e+00 0
0.000000e+00 0.000000e+00 0
0.000000e+00 0.000000e+00 0
0.000000e+00 0.000000e+00 0
0.000000e+00 0.000000e+00 0
0.000000e+00 0.000000e+00 0
0.000000e+00 0.000000e+00 0
0.000000e+00 0.000000e+00 0
0.000000e+00 0.000000e+00 0
0.000000e+00 0.000000e+00 0
0.000000e+00 0.000000e+00 0
0.000000e+00 0.000000e+00 0
0.000000e+00 0.000000e+00 0
0.000000e+00 0.000000e+00 0
0.000000e+00 0.000000e+00 0
0.000000e+00 0.000000e+00 0
0.000000e+00 0.000000e+00 0
0.000000e+00 0.000000e+00 0
0.000000e+00 0.000000e+00 0
0.000000e+00 0.000000e+00 0
4.005215e-01 0.000000e+00 0
4.005215e-01 0.000000e+00 0
4.874719e-01 0.000000e+00 0
4.874719e-01 0.000000e+00 0
5.006565e-01 1.929517e-02 0
1.098392e+00 -2.105801e-01 0
8.751285e-01 -5.669138e-02 0
8.430966e-01 1.731839e-01 0
6.456053e-01 0.000000e+00 0
7.170663e-01 -1.235892e-01 0
1.528690e+00 -4.833826e-01 0
2.025144e+00 -1.189907e+00 0
1.176159e+00 -1.714586e+00 0
1.225283e-03 -1.683985e+00 0
-7.337543e-01 -9.492444e-01 0
-6.003751e-01 1.402295e-01 0
-2.599546e-15 0.000000e+00 0
0.000000e+00 -2.899617e-01 0
0.000000e+00 0.000000e+00 0
0.000000e+00 0.000000e+00 0
0.000000e+00 0.000000e+00 0
0.000000e+00 0.000000e+00 0
0.000000e+00 0.000000e+00 0
0.000000e+00 0.000000e+00 0
0.000000e+00 0.000000e+00 0
0.000000e+00 0.000000e+00 0
0.000000e+00 0.000000e+00 0
0.000000e+00 0.000000e+00 0
0.000000e+00 0.000000e+00 0
0.000000e+00 0.000000e+00 0
0.000000e+00 0.000000e+00 0
0.000000e+00 0.000000e+00 0
0.000000e+00 0.000000e+00 0
0.000000e+00 0.000000e+00 0
0.000000e+00 0.000000e+00 0
0.000000e+00 0.000000e+00 0
0.000000e+00 0.000000e+00 0
0.000000e+00 0.000000e+00 0
0.000000e+00 0.000000e+00 0
0.000000e+00 0.000000e+00 0
0.000000e+00 0.000000e+00 0
0.000000e+00 0.000000e+00 0
0.000000e+00 0.000000e+00 0
0.000000e+00 0.000000e+00 0
0.000000e+00 0.000000e+00 0
0.000000e+00 0.000000e+00 0
0.000000e+00 0.000000e+00 0
0.000000e+00 0.000000e+00 0
0.000000e+00 0.000000e+00 0
0.000000e+00 0.000000e+00 0
0.000000e+00 0.000000e+00 0
0.000000e+00 0.000000e+00 0
0.000000e+00 0.000000e+00 0
0.000000e+00 0.000000e+00 0
0.000000e+00 0.000000e+00 0
0.000000e+00 0.000000e+00 0
0.000000e+00 0.000000e+00 0
0.000000e+00 0.000000e+00 0
0.000000e+00 0.000000e+00 0
0.000000e+00 0.000000e+00 0
0.000000e+00 0.000000e+00 0
0.000000e+00 0.000000e+00 0
0.000000e+00 0.000000e+00 0
0.000000e+00 0.000000e+00 0
0.000000e+00 0.000000e+00 0
1.000000e+00 0.000000e+00 0
1.000000e+00 0.000000e+00 0
1.000000e+00 0.000000e+00 0
1.000000e+00 0.000000e+00 0
1.000000e+00 0.000000e+00 0
1.000000e+00 0.000000e+00 0
1.000000e+00 0.000000e+00 0
1.000000e+00 0.000000e+00 0
1.000000e+00 -1.782045e-01 0
1.112484e+00 -4.007844e-01 0
1.371140e+00 -2.855362e-01 0
1.475446e+00 -1.201431e-01 0
1.465843e+00 -7.388961e-02 0
1.428421e+00 3.011339e-02 0
1.827585e+00 6.653149e-02 0
1.789949e+00 3.060684e-01 0
1.999040e+00 7.335957e-02 0
1.914020e+00 -4.491753e-01 0
1.725352e+00 -3.997661e-01 0
1.758361e+00 -2.705186e-01 0
1.668621e+00 -4.885130e-02 0
1.732675e+00 -7.127267e-02 0
1.804754e+00 -3.574323e-01 0
1.898881e+00 -5.555957e-01 0
2.082495e+00 -7.664388e-01 0
2.132216e+00 -9.703590e-01 0
1.766714e+00 -8.575563e-01 0
1.214842e+00 -4.947086e-01 0
4.164318e-01 -3.408434e-01 0
-6.039045e-02 -2.706692e-01 0
-2.614828e-16 0.000000e+00 0
0.000000e+00 9.841731e-02 0
0.000000e+00 0.000000e+00 0
0.000000e+00 0.000000e+00 0
0.000000e+00 0.000000e+00 0
0.000000e+00 0.000000e+00 0
0.000000e+00 0.000000e+00 0
0.000000e+00 0.000000e+00 0
0.000000e+00 0.000000e+00 0
0.000000e+00 0.000000e+00 0
0.000000e+00 0.000000e+00 0
0.000000e+00 0.000000e+00 0
0.000000e+00 0.000000e+00 0
0.000000e+00 0.000000e+00 0
0.000000e+00 0.000000e+00 0
0.000000e+00 0.000000e+00 0
0.000000e+00 0.000000e+00 0
0.000000e+00 0.000000e+00 0
0.000000e+00 0.000000e+00 0
0.000000e+00 0.000000e+00 0
0.000000e+00 0.000000e+00 0
0.000000e+00 0.000000e+00 0
0.000000e+00 0.000000e+00 0
0.000000e+00 0.000000e+00 0
0.000000e+00 0.000000e+00 0
0.000000e+00 0.000000e+00 0
0.000000e+00 0.000000e+00 0
0.000000e+00 0.000000e+00 0
0.000000e+00 0.000000e+00 0
0.000000e+00 0.000000e+00 0
0.000000e+00 0.000000e+00 0
0.000000e+00 0.000000e+00 0
0.000000e+00 0.000000e+00 0
0.000000e+00 0.000000e+00 0
0.000000e+00 0.000000e+00 0
0.000000e+00 0.000000e+00 0
0.000000e+00 0.000000e+00 0
0.000000e+00 0.000000e+00 0
0.000000e+00 0.000000e+00 0
0.000000e+00 0.000000e+00 0
0.000000e+00 0.000000e+00 0
0.000000e+00 0.000000e+00 0
0.000000e+00 0.000000e+00 0
0.000000e+00 0.000000e+00 0
0.000000e+00 0.000000e+00 0
0.000000e+00 0.000000e+00 0
0.000000e+00 0.000000e+00 0
0.000000e+00 0.000000e+00 0
0.000000e+00 0.000000e+00 0
2.000000e+00 0.000000e+00 0
1.971771e+00 0.000000e+00 0
2.009893e+00 0.000000e+00 0
2.085273e+00 0.000000e+00 0
2.179098e+00 0.000000e+00 0
2.273298e+00 0.000000e+00 0
2.355164e+00 0.000000e+00 0
2.420152e+00 0.000000e+00 0
2.470637e+00 -3.149105e-01 0
2.563177e+00 -8.540558e-01 0
3.031989e+00 -7.465072e-01 0
3.034118e+00 -2.948072e-01 0
2.940807e+00 -1.313890e-01 0
2.861319e+00 -4.362533e-02 0
2.860266e+00 4.252713e-02 0
2.863035e+00 1.581363e-01 0
3.096149e+00 1.485106e-01 0
3.042320e+00 7.266268e-03 0
2.816232e+00 -4.050470e-02 0
2.659638e+00 -8.264943e-02 0
2.557274e+00 -1.097546e-01 0
2.937746e+00 -1.555303e-01 0
2.706109e+00 -3.225842e-01 0
2.479154e+00 -5.210493e-01 0
2.297594e+00 -7.234357e-01 0
2.275299e+00 -8.600283e-01 0
2.195708e+00 -7.562578e-01 0
2.178329e+00 -2.734218e-01 0
8.492280e-01 4.241365e-01 0
1.111811e+00 6.164708e-01 0
4.813996e-15 0.000000e+00 0
0.000000e+00 -2.268753e-01 0
0.000000e+00 0.000000e+00 0
0.000000e+00 0.000000e+00 0
0.000000e+00 0.000000e+00 0
0.000000e+00 0.000000e+00 0
0.000000e+00 0.000000e+00 0
0.000000e+00 0.000000e+00 0
0.000000e+00 0.000000e+00 0
0.000000e+00 0.000000e+00 0
0.000000e+00 0.000000e+00 0
0.000000e+00 0.000000e+00 0
0.000000e+00 0.000000e+00 0
0.000000e+00 0.000000e+00 0
0.000000e+00 0.000000e+00 0
0.000000e+00 0.000000e+00 0
0.000000e+00 0.000000e+00 0
0.000000e+00 0.000000e+00 0
0.000000e+00 0.000000e+00 0
0.000000e+00 0.000000e+00 0
0.000000e+00 0.000000e+00 0
0.000000e+00 0.000000e+00 0
0.000000e+00 0.000000e+00 0
0.000000e+00 0.000000e+00 0
0.000000e+00 0.000000e+00 0
0.000000e+00 0.000000e+00 0
0.000000e+00 0.000000e+00 0
0.000000e+00 0.000000e+00 0
0.000000e+00 0.000000e+00 0
0.000000e+00 0.000000e+00 0
0.000000e+00 0.000000e+00 0
0.000000e+00 0.000000e+00 0
0.000000e+00 0.000000e+00 0
0.000000e+00 0.000000e+00 0
0.000000e+00 0.000000e+00 0
0.000000e+00 0.000000e+00 0
0.000000e+00 0.000000e+00 0
0.000000e+00 0.000000e+00 0
0.000000e+00 0.000000e+00 0
0.000000e+00 0.000000e+00 0
0.000000e+00 0.000000e+00 0
0.000000e+00 0.000000e+00 0
0.000000e+00 0.000000e+00 0
0.000000e+00 0.000000e+00 0
0.000000e+00 0.000000e+00 0
0.000000e+00 0.000000e+00 0
0.000000e+00 0.000000e+00 0
0.000000e+00 0.000000e+00 0
0.000000e+00 0.000000e+00 0
2.000000e+00 0.000000e+00 0
1.933932e+00 -3.286556e-01 0
1.935788e+00 -4.726903e-01 0
1.996275e+00 -5.504987e-01 0
2.083911e+00 -5.803295e-01 0
2.163249e+00 -5.731196e-01 0
2.203170e+00 -5.468919e-01 0
2.186459e+00 -5.191204e-01 0
2.129914e+00 -5.474028e-01 0
1.980094e+00 -1.052759e+00 0
1.660849e+00 -7.586839e-01 0
3.157197e-15 0.000000e+00 0
3.157197e-15 0.000000e+00 0
3.157197e-15 0.000000e+00 0
3.157197e-15 0.000000e+00 0
3.157197e-15 0.000000e+00 0
3.472916e-15 0.000000e+00 0
3.472916e-15 0.000000e+00 0
3.414098e-15 0.000000e+00 0
3.157197e-15 0.000000e+00 0
3.157197e-15 -3.393748e-01 0
1.796805e+00 -1.916134e-01 0
1.546960e+00 1.991794e-01 0
1.297339e+00 -8.643544e-02 0
1.130920e+00 -5.534830e-01 0
1.134650e+00 -8.639246e-01 0
1.134650e+00 -7.562578e-01 0
1.134650e+00 -3.079628e-01 0
0.000000e+00 7.387466e-01 0
8.004195e-01 1.759939e+00 0
3.465712e-15 0.000000e+00 0
-2.239169e-01 -1.021193e+00 0
0.000000e+00 0.000000e+00 0
0.000000e+00 0.000000e+00 0
0.000000e+00 0.000000e+00 0
0.000000e+00 0.000000e+00 0
0.000000e+00 0.000000e+00 0
0.000000e+00 0.000000e+00 0
0.000000e+00 0.000000e+00 0
0.000000e+00 0.000000e+00 0
0.000000e+00 0.000000e+00 0
0.000000e+00 0.000000e+00 0
0.000000e+00 0.000000e+00 0
0.000000e+00 0.000000e+00 0
0.000000e+00 0.000000e+00 0
0.000000e+00 0.000000e+00 0
0.000000e+00 0.000000e+00 0
0.000000e+00 0.000000e+00 0
0.000000e+00 0.000000e+00 0
0.000000e+00 0.000000e+00 0
0.000000e+00 0.000000e+00 0
0.000000e+00 0.000000e+00 0
0.000000e+00 0.000000e+00 0
0.000000e+00 0.000000e+00 0
0.000000e+00 0.000000e+00 0
0.000000e+00 0.000000e+00 0
0.000000e+00 0.000000e+00 0
0.000000e+00 0.000000e+00 0
0.000000e+00 0.000000e+00 0
0.000000e+00 0.000000e+00 0
0.000000e+00 0.000000e+00 0
0.000000e+00 0.000000e+00 0
0.000000e+00 0.000000e+00 0
0.000000e+00 0.000000e+00 0
0.000000e+00 0.000000e+00 0
0.000000e+00 0.000000e+00 0
0.000000e+00 0.000000e+00 0
0.000000e+00 0.000000e+00 0
0.000000e+00 0.000000e+00 0
0.000000e+00 0.000000e+00 0
0.000000e+00 0.000000e+00 0
0.000000e+00 0.000000e+00 0
0.000000e+00 0.000000e+00 0
0.000000e+00 0.000000e+00 0
0.000000e+00 0.000000e+00 0
0.000000e+00 0.000000e+00 0
0.000000e+00 0.000000e+00 0
0.000000e+00 0.000000e+00 0
0.000000e+00 0.000000e+00 0
2.000000e+00 0.000000e+00 0
1.946934e+00 -2.512408e-01 0
1.895951e+00 -4.192458e-01 0
1.881196e+00 -5.284748e-01 0
1.868391e+00 -5.583386e-01 0
1.834933e+00 -5.137766e-01 0
1.751903e+00 -4.177267e-01 0
1.585244e+00 -3.219651e-01 0
1.350243e+00 -2.999211e-01 0
1.008952e+00 -4.738577e-01 0
0.000000e+00 -6.709043e-16 0
-1.558672e+00 3.154561e-01 0
-1.474964e+00 0.000000e+00 0
-1.432898e+00 0.000000e+00 0
-1.433203e+00 0.000000e+00 0
-1.473608e+00 0.000000e+00 0
-1.584581e+00 0.000000e+00 0
-1.615772e+00 0.000000e+00 0
-1.591537e+00 0.000000e+00 0
-1.576998e+00 0.000000e+00 0
-1.512419e+00 0.000000e+00 0
0.000000e+00 0.000000e+00 0
0.000000e+00 0.000000e+00 0
0.000000e+00 0.000000e+00 0
0.000000e+00 0.000000e+00 0
0.000000e+00 0.000000e+00 0
0.000000e+00 0.000000e+00 0
0.000000e+00 0.000000e+00 0
0.000000e+00 8.244380e-16 0
0.000000e+00 1.054432e+00 0
2.019800e-01 1.054432e+00 0
-2.193693e-02 0.000000e+00 0
0.000000e+00 0.000000e+00 0
0.000000e+00 0.000000e+00 0
0.000000e+00 0.000000e+00 0
0.000000e+00 0.000000e+00 0
0.000000e+00 0.000000e+00 0
0.000000e+00 0.000000e+00 0
0.000000e+00 0.000000e+00 0
0.000000e+00 0.000000e+00 0
0.000000e+00 0.000000e+00 0
0.000000e+00 0.000000e+00 0
0.000000e+00 0.000000e+00 0
0.000000e+00 0.000000e+00 0
0.000000e+00 0.000000e+00 0
0.000000e+00 0.000000e+00 0
0.000000e+00 0.000000e+00 0
0.000000e+00 0.000000e+00 0
0.000000e+00 0.000000e+00 0
0.000000e+00 0.000000e+00 0
0.000000e+00 0.000000e+00 0
0.000000e+00 0.000000e+00 0
0.000000e+00 0.000000e+00 0
0.000000e+00 0.000000e+00 0
0.000000e+00 0.000000e+00 0
0.000000e+00 0.000000e+00 0
0.000000e+00 0.000000e+00 0
0.000000e+00 0.000000e+00 0
0.000000e+00 0.000000e+00 0
0.000000e+00 0.000000e+00 0
0.000000e+00 0.000000e+00 0
0.000000e+00 0.000000e+00 0
0.000000e+00 0.000000e+00 0
0.000000e+00 0.000000e+00 0
0.000000e+00 0.000000e+00 0
0.000000e+00 0.000000e+00 0
0.000000e+00 0.000000e+00 0
0.000000e+00 0.000000e+00 0
0.000000e+00 0.000000e+00 0
0.000000e+00 0.000000e+00 0
0.000000e+00 0.000000e+00 0
0.000000e+00 0.000000e+00 0
0.000000e+00 0.000000e+00 0
0.000000e+00 0.000000e+00 0
0.000000e+00 0.000000e+00 0
0.000000e+00 0.000000e+00 0
0.000000e+00 0.000000e+00 0
0.000000e+00 0.000000e+00 0
0.000000e+00 0.000000e+00 0
2.000000e+00 0.000000e+00 0
1.985971e+00 -2.199592e-01 0
1.903965e+00 -4.040165e-01 0
1.844188e+00 -5.217064e-01 0
1.784849e+00 -5.319996e-01 0
1.728395e+00 -4.514298e-01 0
1.656391e+00 -2.860550e-01 0
1.481227e+00 -9.952836e-02 0
1.188380e+00 5.461805e-02 0
7.472455e-01 2.479559e-01 0
0.000000e+00 3.946496e-16 0
0.000000e+00 -1.855029e-01 0
0.000000e+00 0.000000e+00 0
0.000000e+00 0.000000e+00 0
0.000000e+00 0.000000e+00 0
0.000000e+00 0.000000e+00 0
0.000000e+00 0.000000e+00 0
0.000000e+00 0.000000e+00 0
0.000000e+00 0.000000e+00 0
0.000000e+00 0.000000e+00 0
0.000000e+00 0.000000e+00 0
0.000000e+00 0.000000e+00 0
0.000000e+00 0.000000e+00 0
0.000000e+00 0.000000e+00 0
0.000000e+00 0.000000e+00 0
0.000000e+00 0.000000e+00 0
0.000000e+00 0.000000e+00 0
0.000000e+00 0.000000e+00 0
0.000000e+00 7.956297e-01 0
0.000000e+00 1.640759e+00 0
2.019800e-01 8.451294e-01 0
2.019800e-01 0.000000e+00 0
0.000000e+00 0.000000e+00 0
0.000000e+00 0.000000e+00 0
0.000000e+00 0.000000e+00 0
0.000000e+00 0.000000e+00 0
0.000000e+00 0.000000e+00 0
0.000000e+00 0.000000e+00 0
0.000000e+00 0.000000e+00 0
0.000000e+00 0.000000e+00 0
0.000000e+00 0.000000e+00 0
0.000000e+00 0.000000e+00 0
0.000000e+00 0.000000e+00 0
0.000000e+00 0.000000e+00 0
0.000000e+00 0.000000e+00 0
0.000000e+00 0.000000e+00 0
0.000000e+00 0.000000e+00 0
0.000000e+00 0.000000e+00 0
0.000000e+00 0.000000e+00 0
0.000000e+00 0.000000e+00 0
0.000000e+00 0.000000e+00 0
0.000000e+00 0.000000e+00 0
0.000000e+00 0.000000e+00 0
0.000000e+00 0.000000e+00 0
0.000000e+00 0.000000e+00 0
0.000000e+00 0.000000e+00 0
0.000000e+00 0.000000e+00 0
0.000000e+00 0.000000e+00 0
0.000000e+00 0.000000e+00 0
0.000000e+00 0.000000e+00 0
0.000000e+00 0.000000e+00 0
0.000000e+00 0.000000e+00 0
0.000000e+00 0.000000e+00 0
0.000000e+00 0.000000e+00 0
0.000000e+00 0.000000e+00 0
0.000000e+00 0.000000e+00 0
0.000000e+00 0.000000e+00 0
0.000000e+00 0.000000e+00 0
0.000000e+00 0.000000e+00 0
0.000000e+00 0.000000e+00 0
0.000000e+00 0.000000e+00 0
0.000000e+00 0.000000e+00 0
0.000000e+00 0.000000e+00 0
0.000000e+00 0.000000e+00 0