<?xml version="1.0"?>
<VTKFile type="StructuredGrid">
<StructuredGrid WholeExtent="0 78 0 28 0 0 ">
<Piece Extent="0 78 0 28 0 0 ">
<Points>
<DataArray type="Float64" format="ascii" NumberOfComponents="3">
0.000000e+00 0.000000e+00 0.000000e+00
1.025641e-01 0.000000e+00 0.000000e+00
2.051282e-01 0.000000e+00 0.000000e+00
3.076923e-01 0.000000e+00 0.000000e+00
4.102564e-01 0.000000e+00 0.000000e+00
5.128205e-01 0.000000e+00 0.000000e+00
6.153846e-01 0.000000e+00 0.000000e+00
7.179487e-01 0.000000e+00 0.000000e+00
8.205128e-01 0.000000e+00 0.000000e+00
9.230769e-01 0.000000e+00 0.000000e+00
1.025641e+00 0.000000e+00 0.000000e+00
1.128205e+00 0.000000e+00 0.000000e+00
1.230769e+00 0.000000e+00 0.000000e+00
1.333333e+00 0.000000e+00 0.000000e+00
1.435897e+00 0.000000e+00 0.000000e+00
1.538462e+00 0.000000e+00 0.000000e+00
1.641026e+00 0.000000e+00 0.000000e+00
1.743590e+00 0.000000e+00 0.000000e+00
1.846154e+00 0.000000e+00 0.000000e+00
1.948718e+00 0.000000e+00 0.000000e+00
2.051282e+00 0.000000e+00 0.000000e+00
2.153846e+00 0.000000e+00 0.000000e+00
2.256410e+00 0.000000e+00 0.000000e+00
2.358974e+00 0.000000e+00 0.000000e+00
2.461538e+00 0.000000e+00 0.000000e+00
2.564103e+00 0.000000e+00 0.000000e+00
2.666667e+00 0.000000e+00 0.000000e+00
2.769231e+00 0.000000e+00 0.000000e+00
2.871795e+00 0.000000e+00 0.000000e+00
2.974359e+00 0.000000e+00 0.000000e+00
3.076923e+00 0.000000e+00 0.000000e+00
3.179487e+00 0.000000e+00 0.000000e+00
3.282051e+00 0.000000e+00 0.000000e+00
3.384615e+00 0.000000e+00 0.000000e+00
3.487179e+00 0.000000e+00 0.000000e+00
3.589744e+00 0.000000e+00 0.000000e+00
3.692308e+00 0.000000e+00 0.000000e+00
3.794872e+00 0.000000e+00 0.000000e+00
3.897436e+00 0.000000e+00 0.000000e+00
4.000000e+00 0.000000e+00 0.000000e+00
4.102564e+00 0.000000e+00 0.000000e+00
4.205128e+00 0.000000e+00 0.000000e+00
4.307692e+00 0.000000e+00 0.000000e+00
4.410256e+00 0.000000e+00 0.000000e+00
4.512821e+00 0.000000e+00 0.000000e+00
4.615385e+00 0.000000e+00 0.000000e+00
4.717949e+00 0.000000e+00 0.000000e+00
4.820513e+00 0.000000e+00 0.000000e+00
4.923077e+00 0.000000e+00 0.000000e+00
5.025641e+00 0.000000e+00 0.000000e+00
5.128205e+00 0.000000e+00 0.000000e+00
5.230769e+00 0.000000e+00 0.000000e+00
5.333333e+00 0.000000e+00 0.000000e+00
5.435897e+00 0.000000e+00 0.000000e+00
5.538462e+00 0.000000e+00 0.000000e+00
5.641026e+00 0.000000e+00 0.000000e+00
5.743590e+00 0.000000e+00 0.000000e+00
5.846154e+00 0.000000e+00 0.000000e+00
5.948718e+00 0.000000e+00 0.000000e+00
6.051282e+00 0.000000e+00 0.000000e+00
6.153846e+00 0.000000e+00 0.000000e+00
6.256410e+00 0.000000e+00 0.000000e+00
6.358974e+00 0.000000e+00 0.000000e+00
6.461538e+00 0.000000e+00 0.000000e+00
6.564103e+00 0.000000e+00 0.000000e+00
6.666667e+00 0.000000e+00 0.000000e+00
6.769231e+00 0.000000e+00 0.000000e+00
6.871795e+00 0.000000e+00 0.000000e+00
6.974359e+00 0.000000e+00 0.000000e+00
7.076923e+00 0.000000e+00 0.000000e+00
7.179487e+00 0.000000e+00 0.000000e+00
7.282051e+00 0.000000e+00 0.000000e+00
7.384615e+00 0.000000e+00 0.000000e+00
7.487179e+00 0.000000e+00 0.000000e+00
7.589744e+00 0.000000e+00 0.000000e+00
7.692308e+00 0.000000e+00 0.000000e+00
7.794872e+00 0.000000e+00 0.000000e+00
7.897436e+00 0.000000e+00 0.000000e+00
8.000000e+00 0.000000e+00 0.000000e+00
0.000000e+00 1.071429e-01 0.000000e+00
1.025641e-01 1.071429e-01 0.000000e+00
2.051282e-01 1.071429e-01 0.000000e+00
3.076923e-01 1.071429e-01 0.000000e+00
4.102564e-01 1.071429e-01 0.000000e+00
5.128205e-01 1.071429e-01 0.000000e+00
6.153846e-01 1.071429e-01 0.000000e+00
7.179487e-01 1.071429e-01 0.000000e+00
8.205128e-01 1.071429e-01 0.000000e+00
9.230769e-01 1.071429e-01 0.000000e+00
1.025641e+00 1.071429e-01 0.000000e+00
1.128205e+00 1.071429e-01 0.000000e+00
1.230769e+00 1.071429e-01 0.000000e+00
1.333333e+00 1.071429e-01 0.000000e+00
1.435897e+00 1.071429e-01 0.000000e+00
1.538462e+00 1.071429e-01 0.000000e+00
1.641026e+00 1.071429e-01 0.000000e+00
1.743590e+00 1.071429e-01 0.000000e+00
1.846154e+00 1.071429e-01 0.000000e+00
1.948718e+00 1.071429e-01 0.000000e+00
2.051282e+00 1.071429e-01 0.000000e+00
2.153846e+00 1.071429e-01 0.000000e+00
2.256410e+00 1.071429e-01 0.000000e+00
2.358974e+00 1.071429e-01 0.000000e+00
2.461538e+00 1.071429e-01 0.000000e+00
2.564103e+00 1.071429e-01 0.000000e+00
2.666667e+00 1.071429e-01 0.000000e+00
2.769231e+00 1.071429e-01 0.000000e+00
2.871795e+00 1.071429e-01 0.000000e+00
2.974359e+00 1.071429e-01 0.000000e+00
3.076923e+00 1.071429e-01 0.000000e+00
3.179487e+00 1.071429e-01 0.000000e+00
3.282051e+00 1.071429e-01 0.000000e+00
3.384615e+00 1.071429e-01 0.000000e+00
3.487179e+00 1.071429e-01 0.000000e+00
3.589744e+00 1.071429e-01 0.000000e+00
3.692308e+00 1.071429e-01 0.000000e+00
3.794872e+00 1.071429e-01 0.000000e+00
3.897436e+00 1.071429e-01 0.000000e+00
4.000000e+00 1.071429e-01 0.000000e+00
4.102564e+00 1.071429e-01 0.000000e+00
4.205128e+00 1.071429e-01 0.000000e+00
4.307692e+00 1.071429e-01 0.000000e+00
4.410256e+00 1.071429e-01 0.000000e+00
4.512821e+00 1.071429e-01 0.000000e+00
4.615385e+00 1.071429e-01 0.000000e+00
4.717949e+00 1.071429e-01 0.000000e+00
4.820513e+00 1.071429e-01 0.000000e+00
4.923077e+00 1.071429e-01 0.000000e+00
5.025641e+00 1.071429e-01 0.000000e+00
5.128205e+00 1.071429e-01 0.000000e+00
5.230769e+00 1.071429e-01 0.000000e+00
5.333333e+00 1.071429e-01 0.000000e+00
5.435897e+00 1.071429e-01 0.000000e+00
5.538462e+00 1.071429e-01 0.000000e+00
5.641026e+00 1.071429e-01 0.000000e+00
5.743590e+00 1.071429e-01 0.000000e+00
5.846154e+00 1.071429e-01 0.000000e+00
5.948718e+00 1.071429e-01 0.000000e+00
6.051282e+00 1.071429e-01 0.000000e+00
6.153846e+00 1.071429e-01 0.000000e+00
6.256410e+00 1.071429e-01 0.000000e+00
6.358974e+00 1.071429e-01 0.000000e+00
6.461538e+00 1.071429e-01 0.000000e+00
6.564103e+00 1.071429e-01 0.000000e+00
6.666667e+00 1.071429e-01 0.000000e+00
6.769231e+00 1.071429e-01 0.000000e+00
6.871795e+00 1.071429e-01 0.000000e+00
6.974359e+00 1.071429e-01 0.000000e+00
7.076923e+00 1.071429e-01 0.000000e+00
7.179487e+00 1.071429e-01 0.000000e+00
7.282051e+00 1.071429e-01 0.000000e+00
7.384615e+00 1.071429e-01 0.000000e+00
7.487179e+00 1.071429e-01 0.000000e+00
7.589744e+00 1.071429e-01 0.000000e+00
7.692308e+00 1.071429e-01 0.000000e+00
7.794872e+00 1.071429e-01 0.000000e+00
7.897436e+00 1.071429e-01 0.000000e+00
8.000000e+00 1.071429e-01 0.000000e+00
0.000000e+00 2.142857e-01 0.000000e+00
1.025641e-01 2.142857e-01 0.000000e+00
2.051282e-01 2.142857e-01 0.000000e+00
3.076923e-01 2.142857e-01 0.000000e+00
4.102564e-01 2.142857e-01 0.000000e+00
5.128205e-01 2.142857e-01 0.000000e+00
6.153846e-01 2.142857e-01 0.000000e+00
7.179487e-01 2.142857e-01 0.000000e+00
8.205128e-01 2.142857e-01 0.000000e+00
9.230769e-01 2.142857e-01 0.000000e+00
1.025641e+00 2.142857e-01 0.000000e+00
1.128205e+00 2.142857e-01 0.000000e+00
1.230769e+00 2.142857e-01 0.000000e+00
1.333333e+00 2.142857e-01 0.000000e+00
1.435897e+00 2.142857e-01 0.000000e+00
1.538462e+00 2.142857e-01 0.000000e+00
1.641026e+00 2.142857e-01 0.000000e+00
1.743590e+00 2.142857e-01 0.000000e+00
1.846154e+00 2.142857e-01 0.000000e+00
1.948718e+00 2.142857e-01 0.000000e+00
2.051282e+00 2.142857e-01 0.000000e+00
2.153846e+00 2.142857e-01 0.000000e+00
2.256410e+00 2.142857e-01 0.000000e+00
2.358974e+00 2.142857e-01 0.000000e+00
2.461538e+00 2.142857e-01 0.000000e+00
2.564103e+00 2.142857e-01 0.000000e+00
2.666667e+00 2.142857e-01 0.000000e+00
2.769231e+00 2.142857e-01 0.000000e+00
2.871795e+00 2.142857e-01 0.000000e+00
2.974359e+00 2.142857e-01 0.000000e+00
3.076923e+00 2.142857e-01 0.000000e+00
3.179487e+00 2.142857e-01 0.000000e+00
3.282051e+00 2.142857e-01 0.000000e+00
3.384615e+00 2.142857e-01 0.000000e+00
3.487179e+00 2.142857e-01 0.000000e+00
3.589744e+00 2.142857e-01 0.000000e+00
3.692308e+00 2.142857e-01 0.000000e+00
3.794872e+00 2.142857e-01 0.000000e+00
3.897436e+00 2.142857e-01 0.000000e+00
4.000000e+00 2.142857e-01 0.000000e+00
4.102564e+00 2.142857e-01 0.000000e+00
4.205128e+00 2.142857e-01 0.000000e+00
4.307692e+00 2.142857e-01 0.000000e+00
4.410256e+00 2.142857e-01 0.000000e+00
4.512821e+00 2.142857e-01 0.000000e+00
4.615385e+00 2.142857e-01 0.000000e+00
4.717949e+00 2.142857e-01 0.000000e+00
4.820513e+00 2.142857e-01 0.000000e+00
4.923077e+00 2.142857e-01 0.000000e+00
5.025641e+00 2.142857e-01 0.000000e+00
5.128205e+00 2.142857e-01 0.000000e+00
5.230769e+00 2.142857e-01 0.000000e+00
5.333333e+00 2.142857e-01 0.000000e+00
5.435897e+00 2.142857e-01 0.000000e+00
5.538462e+00 2.142857e-01 0.000000e+00
5.641026e+00 2.142857e-01 0.000000e+00
5.743590e+00 2.142857e-01 0.000000e+00
5.846154e+00 2.142857e-01 0.000000e+00
5.948718e+00 2.142857e-01 0.000000e+00
6.051282e+00 2.142857e-01 0.000000e+00
6.153846e+00 2.142857e-01 0.000000e+00
6.256410e+00 2.142857e-01 0.000000e+00
6.358974e+00 2.142857e-01 0.000000e+00
6.461538e+00 2.142857e-01 0.000000e+00
6.564103e+00 2.142857e-01 0.000000e+00
6.666667e+00 2.142857e-01 0.000000e+00
6.769231e+00 2.142857e-01 0.000000e+00
6.871795e+00 2.142857e-01 0.000000e+00
6.974359e+00 2.142857e-01 0.000000e+00
7.076923e+00 2.142857e-01 0.000000e+00
7.179487e+00 2.142857e-01 0.000000e+00
7.282051e+00 2.142857e-01 0.000000e+00
7.384615e+00 2.142857e-01 0.000000e+00
7.487179e+00 2.142857e-01 0.000000e+00
7.589744e+00 2.142857e-01 0.000000e+00
7.692308e+00 2.142857e-01 0.000000e+00
7.794872e+00 2.142857e-01 0.000000e+00
7.897436e+00 2.142857e-01 0.000000e+00
8.000000e+00 2.142857e-01 0.000000e+00
0.000000e+00 3.214286e-01 0.000000e+00
1.025641e-01 3.214286e-01 0.000000e+00
2.051282e-01 3.214286e-01 0.000000e+00
3.076923e-01 3.214286e-01 0.000000e+00
4.102564e-01 3.214286e-01 0.000000e+00
5.128205e-01 3.214286e-01 0.000000e+00
6.153846e-01 3.214286e-01 0.000000e+00
7.179487e-01 3.214286e-01 0.000000e+00
8.205128e-01 3.214286e-01 0.000000e+00
9.230769e-01 3.214286e-01 0.000000e+00
1.025641e+00 3.214286e-01 0.000000e+00
1.128205e+00 3.214286e-01 0.000000e+00
1.230769e+00 3.214286e-01 0.000000e+00
1.333333e+00 3.214286e-01 0.000000e+00
[...]
<PointData>
<DataArray Name="Velocity" type="Float64" format="ascii" NumberOfComponents="3">
0.000000e+00 0.000000e+00 0
0.000000e+00 0.000000e+00 0
0.000000e+00 0.000000e+00 0
0.000000e+00 0.000000e+00 0
0.000000e+00 0.000000e+00 0
0.000000e+00 0.000000e+00 0
0.000000e+00 0.000000e+00 0
0.000000e+00 0.000000e+00 0
0.000000e+00 0.000000e+00 0
0.000000e+00 0.000000e+00 0
0.000000e+00 0.000000e+00 0
0.000000e+00 0.000000e+00 0
0.000000e+00 0.000000e+00 0
0.000000e+00 0.000000e+00 0
0.000000e+00 0.000000e+00 0
0.000000e+00 0.000000e+00 0
0.000000e+00 0.000000e+00 0
0.000000e+00 0.000000e+00 0
0.000000e+00 0.000000e+00 0
0.000000e+00 0.000000e+00 0
0.000000e+00 0.000000e+00 0
0.000000e+00 0.000000e+00 0
0.000000e+00 0.000000e+00 0
0.000000e+00 0.000000e+00 0
0.000000e+00 0.000000e+00 0
0.000000e+00 0.000000e+00 0
0.000000e+00 0.000000e+00 0
0.000000e+00 0.000000e+00 0
0.000000e+00 0.000000e+00 0
0.000000e+00 0.000000e+00 0
0.000000e+00 0.000000e+00 0
0.000000e+00 0.000000e+00 0
0.000000e+00 0.000000e+00 0
0.000000e+00 0.000000e+00 0
0.000000e+00 0.000000e+00 0
0.000000e+00 0.000000e+00 0
0.000000e+00 0.000000e+00 0
0.000000e+00 0.000000e+00 0
0.000000e+00 0.000000e+00 0
0.000000e+00 0.000000e+00 0
0.000000e+00 0.000000e+00 0
0.000000e+00 0.000000e+00 0
0.000000e+00 0.000000e+00 0
0.000000e+00 0.000000e+00 0
0.000000e+00 0.000000e+00 0
0.000000e+00 0.000000e+00 0
0.000000e+00 0.000000e+00 0
0.000000e+00 0.000000e+00 0
0.000000e+00 0.000000e+00 0
0.000000e+00 0.000000e+00 0
0.000000e+00 0.000000e+00 0
0.000000e+00 0.000000e+00 0
0.000000e+00 0.000000e+00 0
0.000000e+00 0.000000e+00 0
0.000000e+00 0.000000e+00 0
0.000000e+00 0.000000e+00 0
0.000000e+00 0.000000e+00 0
0.000000e+00 0.000000e+00 0
0.000000e+00 0.000000e+00 0
0.000000e+00 0.000000e+00 0
0.000000e+00 0.000000e+00 0
0.000000e+00 0.000000e+00 0
0.000000e+00 0.000000e+00 0
0.000000e+00 0.000000e+00 0
0.000000e+00 0.000000e+00 0
0.000000e+00 0.000000e+00 0
0.000000e+00 0.000000e+00 0
0.000000e+00 0.000000e+00 0
0.000000e+00 0.000000e+00 0
0.000000e+00 0.000000e+00 0
0.000000e+00 0.000000e+00 0
0.000000e+00 0.000000e+00 0
0.000000e+00 0.000000e+00 0
0.000000e+00 0.000000e+00 0
0.000000e+00 0.000000e+00 0
0.000000e+00 0.000000e+00 0
0.000000e+00 0.000000e+00 0
0.000000e+00 0.000000e+00 0
0.000000e+00 0.000000e+00 0
0.000000e+00 0.000000e+00 0
0.000000e+00 0.000000e+00 0
0.000000e+00 0.000000e+00 0
0.000000e+00 0.000000e+00 0
0.000000e+00 0.000000e+00 0
0.000000e+00 0.000000e+00 0
0.000000e+00 0.000000e+00 0
0.000000e+00 0.000000e+00 0
0.000000e+00 0.000000e+00 0
0.000000e+00 0.000000e+00 0
0.000000e+00 0.000000e+00 0
0.000000e+00 0.000000e+00 0
0.000000e+00 0.000000e+00 0
0.000000e+00 0.000000e+00 0
0.000000e+00 0.000000e+00 0
0.000000e+00 0.000000e+00 0
0.000000e+00 0.000000e+00 0
0.000000e+00 0.000000e+00 0
0.000000e+00 0.000000e+00 0
0.000000e+00 0.000000e+00 0
0.000000e+00 0.000000e+00 0
0.000000e+00 0.000000e+00 0
0.000000e+00 0.000000e+00 0
0.000000e+00 0.000000e+00 0
0.000000e+00 0.000000e+00 0
0.000000e+00 0.000000e+00 0
0.000000e+00 0.000000e+00 0
0.000000e+00 0.000000e+00 0
0.000000e+00 0.000000e+00 0
0.000000e+00 0.000000e+00 0
0.000000e+00 0.000000e+00 0
0.000000e+00 0.000000e+00 0
0.000000e+00 0.000000e+00 0
0.000000e+00 0.000000e+00 0
0.000000e+00 0.000000e+00 0
0.000000e+00 0.000000e+00 0
0.000000e+00 0.000000e+00 0
0.000000e+00 0.000000e+00 0
0.000000e+00 0.000000e+00 0
0.000000e+00 0.000000e+00 0
0.000000e+00 0.000000e+00 0
0.000000e+00 0.000000e+00 0
0.000000e+00 0.000000e+00 0
0.000000e+00 0.000000e+00 0
0.000000e+00 0.000000e+00 0
0.000000e+00 0.000000e+00 0
0.000000e+00 0.000000e+00 0
0.000000e+00 0.000000e+00 0
0.000000e+00 0.000000e+00 0
0.000000e+00 0.000000e+00 0
0.000000e+00 0.000000e+00 0
0.000000e+00 0.000000e+00 0
0.000000e+00 0.000000e+00 0
0.000000e+00 0.000000e+00 0
0.000000e+00 0.000000e+00 0
0.000000e+00 0.000000e+00 0
0.000000e+00 0.000000e+00 0
0.000000e+00 0.000000e+00 0
0.000000e+00 0.000000e+00 0
0.000000e+00 0.000000e+00 0
0.000000e+00 0.000000e+00 0
0.000000e+00 0.000000e+00 0
0.000000e+00 0.000000e+00 0
0.000000e+00 0.000000e+00 0
0.000000e+00 0.000000e+00 0
0.000000e+00 0.000000e+00 0
0.000000e+00 0.000000e+00 0
0.000000e+00 0.000000e+00 0
0.000000e+00 0.000000e+00 0
0.000000e+00 0.000000e+00 0
0.000000e+00 0.000000e+00 0
0.000000e+00 0.000000e+00 0
0.000000e+00 0.000000e+00 0
0.000000e+00 0.000000e+00 0
0.000000e+00 0.000000e+00 0
0.000000e+00 0.000000e+00 0
0.000000e+00 0.000000e+00 0
0.000000e+00 0.000000e+00 0
0.000000e+00 0.000000e+00 0
0.000000e+00 0.000000e+00 0
0.000000e+00 0.000000e+00 0
0.000000e+00 0.000000e+00 0
0.000000e+00 0.000000e+00 0
0.000000e+00 0.000000e+00 0
0.000000e+00 0.000000e+00 0
0.000000e+00 0.000000e+00 0
0.000000e+00 0.000000e+00 0
0.000000e+00 0.000000e+00 0
0.000000e+00 0.000000e+00 0
0.000000e+00 0.000000e+00 0
0.000000e+00 0.000000e+00 0
0.000000e+00 0.000000e+00 0
0.000000e+00 0.000000e+00 0
0.000000e+00 0.000000e+00 0
0.000000e+00 0.000000e+00 0
0.000000e+00 0.000000e+00 0
0.000000e+00 0.000000e+00 0
0.000000e+00 0.000000e+00 0
0.000000e+00 0.000000e+00 0
0.000000e+00 0.000000e+00 0
0.000000e+00 0.000000e+00 0
0.000000e+00 0.000000e+00 0
0.000000e+00 0.000000e+00 0
0.000000e+00 0.000000e+00 0
0.000000e+00 0.000000e+00 0
0.000000e+00 0.000000e+00 0
0.000000e+00 0.000000e+00 0
0.000000e+00 0.000000e+00 0
0.000000e+00 0.000000e+00 0
0.000000e+00 0.000000e+00 0
0.000000e+00 0.000000e+00 0
0.000000e+00 0.000000e+00 0
0.000000e+00 0.000000e+00 0
0.000000e+00 0.000000e+00 0
0.000000e+00 0.000000e+00 0
0.000000e+00 0.000000e+00 0
0.000000e+00 0.000000e+00 0
0.000000e+00 0.000000e+00 0
0.000000e+00 0.000000e+00 0
0.000000e+00 0.000000e+00 0
0.000000e+00 0.000000e+00 0
0.000000e+00 0.000000e+00 0
0.000000e+00 0.000000e+00 0
0.000000e+00 0.000000e+00 0
0.000000e+00 0.000000e+00 0
0.000000e+00 0.000000e+00 0
0.000000e+00 0.000000e+00 0
0.000000e+00 0.000000e+00 0
0.000000e+00 0.000000e+00 0
0.000000e+00 0.000000e+00 0
0.000000e+00 0.000000e+00 0
0.000000e+00 0.000000e+00 0
0.000000e+00 0.000000e+00 0
0.000000e+00 0.000000e+00 0
0.000000e+00 0.000000e+00 0
0.000000e+00 0.000000e+00 0
0.000000e+00 0.000000e+00 0
0.000000e+00 0.000000e+00 0
0.000000e+00 0.000000e+00 0
0.000000e+00 0.000000e+00 0
0.000000e+00 0.000000e+00 0
0.000000e+00 0.000000e+00 0
0.000000e+00 0.000000e+00 0
0.000000e+00 0.000000e+00 0
0.000000e+00 0.000000e+00 0
0.000000e+00 0.000000e+00 0
0.000000e+00 0.000000e+00 0
0.000000e+00 0.000000e+00 0
0.000000e+00 0.000000e+00 0
0.000000e+00 0.000000e+00 0
0.000000e+00 0.000000e+00 0
0.000000e+00 0.000000e+00 0
0.000000e+00 0.000000e+00 0
0.000000e+00 0.000000e+00 0
0.000000e+00 0.000000e+00 0
0.000000e+00 0.000000e+00 0
0.000000e+00 0.000000e+00 0
0.000000e+00 0.000000e+00 0
0.000000e+00 0.000000e+00 0
0.000000e+00 0.000000e+00 0
0.000000e+00 0.000000e+00 0
0.000000e+00 0.000000e+00 0
0.000000e+00 0.000000e+00 0
0.000000e+00 0.000000e+00 0
0.000000e+00 0.000000e+00 0
0.000000e+00 0.000000e+00 0
0.000000e+00 0.000000e+00 0
0.000000e+00 0.000000e+00 0
0.000000e+00 0.000000e+00 0
0.000000e+00 0.000000e+00 0
0.000000e+00 0.000000e+00 0
0.000000e+00 0.000000e+00 0
0.000000e+00 2.882335e-01 0
6.218915e-01 2.882335e-01 0
6.015273e-01 0.000000e+00 0
6.015273e-01 0.000000e+00 0
7.663105e-01 0.000000e+00 0
0.000000e+00 0.000000e+00 0
0.000000e+00 0.000000e+00 0
0.000000e+00 0.000000e+00 0
0.000000e+00 0.000000e+00 0
0.000000e+00 0.000000e+00 0
0.000000e+00 0.000000e+00 0
0.000000e+00 0.000000e+00 0
0.000000e+00 0.000000e+00 0
0.000000e+00 0.000000e+00 0
0.000000e+00 0.000000e+00 0
0.000000e+00 0.000000e+00 0
0.000000e+00 0.000000e+00 0
0.000000e+00 0.000000e+00 0
0.000000e+00 0.000000e+00 0
0.000000e+00 0.000000e+00 0
0.000000e+00 0.000000e+00 0
0.000000e+00 0.000000e+00 0
0.000000e+00 0.000000e+00 0
0.000000e+00 0.000000e+00 0
0.000000e+00 0.000000e+00 0
0.000000e+00 0.000000e+00 0
0.000000e+00 0.000000e+00 0
0.000000e+00 0.000000e+00 0
0.000000e+00 0.000000e+00 0
0.000000e+00 0.000000e+00 0
0.000000e+00 0.000000e+00 0
0.000000e+00 0.000000e+00 0
0.000000e+00 0.000000e+00 0
0.000000e+00 0.000000e+00 0
0.000000e+00 0.000000e+00 0
0.000000e+00 0.000000e+00 0
0.000000e+00 0.000000e+00 0
0.000000e+00 0.000000e+00 0
0.000000e+00 0.000000e+00 0
0.000000e+00 0.000000e+00 0
0.000000e+00 0.000000e+00 0
0.000000e+00 0.000000e+00 0
0.000000e+00 0.000000e+00 0
0.000000e+00 0.000000e+00 0
0.000000e+00 0.000000e+00 0
0.000000e+00 0.000000e+00 0
0.000000e+00 0.000000e+00 0
0.000000e+00 0.000000e+00 0
0.000000e+00 0.000000e+00 0
0.000000e+00 0.000000e+00 0
0.000000e+00 0.000000e+00 0
0.000000e+00 0.000000e+00 0
0.000000e+00 0.000000e+00 0
0.000000e+00 0.000000e+00 0
0.000000e+00 0.000000e+00 0
0.000000e+00 0.000000e+00 0
0.000000e+00 0.000000e+00 0
0.000000e+00 0.000000e+00 0
0.000000e+00 0.000000e+00 0
0.000000e+00 0.000000e+00 0
0.000000e+00 0.000000e+00 0
0.000000e+00 0.000000e+00 0
0.000000e+00 0.000000e+00 0
0.000000e+00 0.000000e+00 0
0.000000e+00 0.000000e+00 0
1.000000e+00 0.000000e+00 0
1.000000e+00 0.000000e+00 0
1.000000e+00 0.000000e+00 0
1.000000e+00 0.000000e+00 0
1.000000e+00 0.000000e+00 0
1.000000e+00 0.000000e+00 0
1.000000e+00 0.000000e+00 0
1.000000e+00 0.000000e+00 0
1.000000e+00 0.000000e+00 0
1.000000e+00 0.000000e+00 0
1.000000e+00 -6.295632e-02 0
1.058952e+00 -1.201431e-01 0
1.085008e+00 -7.388961e-02 0
1.113566e+00 -1.941038e-01 0
1.010721e+00 4.106540e-03 0
1.812151e+00 8.985401e-02 0
1.849663e+00 -6.047690e-01 0
1.565692e+00 -7.187075e-01 0
1.532621e+00 -2.055920e-01 0
8.266799e-01 0.000000e+00 0
8.266799e-01 0.000000e+00 0
8.266799e-01 0.000000e+00 0
8.266799e-01 0.000000e+00 0
8.266799e-01 0.000000e+00 0
8.266799e-01 0.000000e+00 0
1.134650e+00 0.000000e+00 0
0.000000e+00 0.000000e+00 0
0.000000e+00 0.000000e+00 0
9.299535e-01 -9.714692e-01 0
0.000000e+00 -9.714692e-01 0
0.000000e+00 0.000000e+00 0
0.000000e+00 0.000000e+00 0
0.000000e+00 0.000000e+00 0
0.000000e+00 0.000000e+00 0
0.000000e+00 0.000000e+00 0
0.000000e+00 0.000000e+00 0
0.000000e+00 0.000000e+00 0
0.000000e+00 0.000000e+00 0
0.000000e+00 0.000000e+00 0
0.000000e+00 0.000000e+00 0
0.000000e+00 0.000000e+00 0
0.000000e+00 0.000000e+00 0
0.000000e+00 0.000000e+00 0
0.000000e+00 0.000000e+00 0
0.000000e+00 0.000000e+00 0
0.000000e+00 0.000000e+00 0
0.000000e+00 0.000000e+00 0
0.000000e+00 0.000000e+00 0
0.000000e+00 0.000000e+00 0
0.000000e+00 0.000000e+00 0
0.000000e+00 0.000000e+00 0
0.000000e+00 0.000000e+00 0
0.000000e+00 0.000000e+00 0
0.000000e+00 0.000000e+00 0
0.000000e+00 0.000000e+00 0
0.000000e+00 0.000000e+00 0
0.000000e+00 0.000000e+00 0
0.000000e+00 0.000000e+00 0
0.000000e+00 0.000000e+00 0
0.000000e+00 0.000000e+00 0
0.000000e+00 0.000000e+00 0
0.000000e+00 0.000000e+00 0
0.000000e+00 0.000000e+00 0
0.000000e+00 0.000000e+00 0
0.000000e+00 0.000000e+00 0
0.000000e+00 0.000000e+00 0
0.000000e+00 0.000000e+00 0
0.000000e+00 0.000000e+00 0
0.000000e+00 0.000000e+00 0
0.000000e+00 0.000000e+00 0
0.000000e+00 0.000000e+00 0
0.000000e+00 0.000000e+00 0
0.000000e+00 0.000000e+00 0
0.000000e+00 0.000000e+00 0
0.000000e+00 0.000000e+00 0
0.000000e+00 0.000000e+00 0
0.000000e+00 0.000000e+00 0
0.000000e+00 0.000000e+00 0
0.000000e+00 0.000000e+00 0
2.000000e+00 0.000000e+00 0
1.980907e+00 0.000000e+00 0
2.042696e+00 0.000000e+00 0
2.143246e+00 0.000000e+00 0
2.252403e+00 0.000000e+00 0
2.343767e+00 0.000000e+00 0
2.408389e+00 0.000000e+00 0
2.448731e+00 0.000000e+00 0
2.474703e+00 0.000000e+00 0
2.474216e+00 0.000000e+00 0
2.819090e+00 -1.077307e-01 0
2.886579e+00 -1.944847e-01 0
2.829589e+00 -1.692158e-01 0
2.779209e+00 -1.635115e-01 0
2.598777e+00 -8.709609e-02 0
2.772528e+00 -7.500277e-02 0
2.764395e+00 -1.361248e-01 0
2.416125e+00 -6.607355e-02 0
2.225204e+00 3.752606e-02 0
2.280433e+00 1.210072e-02 0
2.292137e+00 -2.433045e-02 0
2.121683e+00 0.000000e+00 0
2.095524e+00 0.000000e+00 0
1.961330e+00 0.000000e+00 0
1.957069e+00 0.000000e+00 0
2.269299e+00 0.000000e+00 0
1.134650e+00 0.000000e+00 0
1.134650e+00 0.000000e+00 0
2.064603e+00 0.000000e+00 0
1.134650e+00 -2.657549e-01 0
4.912885e-15 0.000000e+00 0
0.000000e+00 2.657549e-01 0
0.000000e+00 0.000000e+00 0
0.000000e+00 0.000000e+00 0
0.000000e+00 0.000000e+00 0
0.000000e+00 0.000000e+00 0
0.000000e+00 0.000000e+00 0
0.000000e+00 0.000000e+00 0
0.000000e+00 0.000000e+00 0
0.000000e+00 0.000000e+00 0
0.000000e+00 0.000000e+00 0
0.000000e+00 0.000000e+00 0
0.000000e+00 0.000000e+00 0
0.000000e+00 0.000000e+00 0
0.000000e+00 0.000000e+00 0
0.000000e+00 0.000000e+00 0
0.000000e+00 0.000000e+00 0
0.000000e+00 0.000000e+00 0
0.000000e+00 0.000000e+00 0
0.000000e+00 0.000000e+00 0
0.000000e+00 0.000000e+00 0
0.000000e+00 0.000000e+00 0
0.000000e+00 0.000000e+00 0
0.000000e+00 0.000000e+00 0
0.000000e+00 0.000000e+00 0
0.000000e+00 0.000000e+00 0
0.000000e+00 0.000000e+00 0
0.000000e+00 0.000000e+00 0
0.000000e+00 0.000000e+00 0
0.000000e+00 0.000000e+00 0
0.000000e+00 0.000000e+00 0
0.000000e+00 0.000000e+00 0
0.000000e+00 0.000000e+00 0
0.000000e+00 0.000000e+00 0
0.000000e+00 0.000000e+00 0
0.000000e+00 0.000000e+00 0
0.000000e+00 0.000000e+00 0
0.000000e+00 0.000000e+00 0
0.000000e+00 0.000000e+00 0
0.000000e+00 0.000000e+00 0
0.000000e+00 0.000000e+00 0
0.000000e+00 0.000000e+00 0
0.000000e+00 0.000000e+00 0
0.000000e+00 0.000000e+00 0
0.000000e+00 0.000000e+00 0
0.000000e+00 0.000000e+00 0
0.000000e+00 0.000000e+00 0
0.000000e+00 0.000000e+00 0
0.000000e+00 0.000000e+00 0
2.000000e+00 0.000000e+00 0
1.960110e+00 -3.548714e-01 0
2.025619e+00 -5.338745e-01 0
2.143137e+00 -6.168890e-01 0
2.245893e+00 -6.307989e-01 0
2.270852e+00 -6.067322e-01 0
2.200036e+00 -5.798764e-01 0
2.060253e+00 -5.680567e-01 0
1.908916e+00 -5.512374e-01 0
1.815110e+00 -8.601355e-01 0
1.819090e+00 -5.924890e-01 0
3.788636e-15 0.000000e+00 0
3.788636e-15 0.000000e+00 0
3.472916e-15 0.000000e+00 0
3.157197e-15 0.000000e+00 0
3.157197e-15 0.000000e+00 0
3.157197e-15 0.000000e+00 0
2.841477e-15 0.000000e+00 0
3.147281e-15 0.000000e+00 0
2.841477e-15 0.000000e+00 0
2.841477e-15 1.780639e-01 0
1.295003e+00 2.053907e-01 0
1.268844e+00 1.675119e-01 0
2.411093e+00 1.446357e-01 0
1.130389e+00 -3.884832e-17 0
1.134650e+00 -4.450671e-03 0
1.134650e+00 0.000000e+00 0
1.134650e+00 0.000000e+00 0
1.134650e+00 0.000000e+00 0
1.134650e+00 7.946650e-01 0
4.912885e-15 0.000000e+00 0
0.000000e+00 -7.946650e-01 0
0.000000e+00 0.000000e+00 0
0.000000e+00 0.000000e+00 0
0.000000e+00 0.000000e+00 0
0.000000e+00 0.000000e+00 0
0.000000e+00 0.000000e+00 0
0.000000e+00 0.000000e+00 0
0.000000e+00 0.000000e+00 0
0.000000e+00 0.000000e+00 0
0.000000e+00 0.000000e+00 0
0.000000e+00 0.000000e+00 0
0.000000e+00 0.000000e+00 0
0.000000e+00 0.000000e+00 0
0.000000e+00 0.000000e+00 0
0.000000e+00 0.000000e+00 0
0.000000e+00 0.000000e+00 0
0.000000e+00 0.000000e+00 0
0.000000e+00 0.000000e+00 0
0.000000e+00 0.000000e+00 0
0.000000e+00 0.000000e+00 0
0.000000e+00 0.000000e+00 0
0.000000e+00 0.000000e+00 0
0.000000e+00 0.000000e+00 0
0.000000e+00 0.000000e+00 0
0.000000e+00 0.000000e+00 0
0.000000e+00 0.000000e+00 0
0.000000e+00 0.000000e+00 0
0.000000e+00 0.000000e+00 0
0.000000e+00 0.000000e+00 0
0.000000e+00 0.000000e+00 0
0.000000e+00 0.000000e+00 0
0.000000e+00 0.000000e+00 0
0.000000e+00 0.000000e+00 0
0.000000e+00 0.000000e+00 0
0.000000e+00 0.000000e+00 0
0.000000e+00 0.000000e+00 0
0.000000e+00 0.000000e+00 0
0.000000e+00 0.000000e+00 0
0.000000e+00 0.000000e+00 0
0.000000e+00 0.000000e+00 0
0.000000e+00 0.000000e+00 0
0.000000e+00 0.000000e+00 0
0.000000e+00 0.000000e+00 0
0.000000e+00 0.000000e+00 0
0.000000e+00 0.000000e+00 0
0.000000e+00 0.000000e+00 0
0.000000e+00 0.000000e+00 0
0.000000e+00 0.000000e+00 0
2.000000e+00 0.000000e+00 0
2.005519e+00 -3.370298e-01 0
2.053196e+00 -5.554861e-01 0
2.108996e+00 -6.279267e-01 0
2.111211e+00 -5.547415e-01 0
1.998161e+00 -3.958777e-01 0
1.746701e+00 -2.502242e-01 0
1.387181e+00 -1.946646e-01 0
9.943446e-01 -2.685270e-01 0
6.582462e-01 -5.338335e-01 0
0.000000e+00 -7.892992e-16 0
-1.827627e+00 3.636728e-01 0
-1.744580e+00 0.000000e+00 0
-1.665642e+00 0.000000e+00 0
-1.588056e+00 0.000000e+00 0
-1.582268e+00 0.000000e+00 0
-1.516259e+00 0.000000e+00 0
-1.451961e+00 0.000000e+00 0
-1.458894e+00 0.000000e+00 0
-1.453753e+00 0.000000e+00 0
-1.465457e+00 0.000000e+00 0
0.000000e+00 0.000000e+00 0
0.000000e+00 0.000000e+00 0
1.276444e+00 0.000000e+00 0
0.000000e+00 0.000000e+00 0
0.000000e+00 0.000000e+00 0
0.000000e+00 0.000000e+00 0
0.000000e+00 0.000000e+00 0
0.000000e+00 0.000000e+00 0
0.000000e+00 7.956297e-01 0
0.000000e+00 8.244380e-16 0
0.000000e+00 -7.956297e-01 0
0.000000e+00 0.000000e+00 0
0.000000e+00 0.000000e+00 0
0.000000e+00 0.000000e+00 0
0.000000e+00 0.000000e+00 0
0.000000e+00 0.000000e+00 0
0.000000e+00 0.000000e+00 0
0.000000e+00 0.000000e+00 0
0.000000e+00 0.000000e+00 0
0.000000e+00 0.000000e+00 0
0.000000e+00 0.000000e+00 0
0.000000e+00 0.000000e+00 0
0.000000e+00 0.000000e+00 0
0.000000e+00 0.000000e+00 0
0.000000e+00 0.000000e+00 0
0.000000e+00 0.000000e+00 0
0.000000e+00 0.000000e+00 0
0.000000e+00 0.000000e+00 0
0.000000e+00 0.000000e+00 0
0.000000e+00 0.000000e+00 0
0.000000e+00 0.000000e+00 0
0.000000e+00 0.000000e+00 0
0.000000e+00 0.000000e+00 0
0.000000e+00 0.000000e+00 0
0.000000e+00 0.000000e+00 0
0.000000e+00 0.000000e+00 0
0.000000e+00 0.000000e+00 0
0.000000e+00 0.000000e+00 0
0.000000e+00 0.000000e+00 0
0.000000e+00 0.000000e+00 0
0.000000e+00 0.000000e+00 0
0.000000e+00 0.000000e+00 0
0.000000e+00 0.000000e+00 0
0.000000e+00 0.000000e+00 0
0.000000e+00 0.000000e+00 0
0.000000e+00 0.000000e+00 0
0.000000e+00 0.000000e+00 0
0.000000e+00 0.000000e+00 0
0.000000e+00 0.000000e+00 0
0.000000e+00 0.000000e+00 0
0.000000e+00 0.000000e+00 0
0.000000e+00 0.000000e+00 0
0.000000e+00 0.000000e+00 0
0.000000e+00 0.000000e+00 0
0.000000e+00 0.000000e+00 0
0.000000e+00 0.000000e+00 0
0.000000e+00 0.000000e+00 0
0.000000e+00 0.000000e+00 0
2.000000e+00 0.000000e+00 0
2.025140e+00 -4.104381e-01 0
2.066242e+00 -6.419687e-01 0
2.109614e+00 -6.774911e-01 0
2.110226e+00 -5.150142e-01 0
2.030228e+00 -2.259480e-01 0
1.798412e+00 5.838194e-02 0
1.452579e+00 2.178894e-01 0
1.054657e+00 2.102408e-01 0
6.120540e-01 5.130504e-02 0
0.000000e+00 -6.906368e-17 0
0.000000e+00 3.215225e-02 0
0.000000e+00 0.000000e+00 0
0.000000e+00 0.000000e+00 0
0.000000e+00 0.000000e+00 0
0.000000e+00 0.000000e+00 0
0.000000e+00 0.000000e+00 0
0.000000e+00 0.000000e+00 0
0.000000e+00 0.000000e+00 0
0.000000e+00 0.000000e+00 0
0.000000e+00 0.000000e+00 0
0.000000e+00 0.000000e+00 0
0.000000e+00 0.000000e+00 0
0.000000e+00 0.000000e+00 0
0.000000e+00 0.000000e+00 0
0.000000e+00 0.000000e+00 0
0.000000e+00 0.000000e+00 0
0.000000e+00 0.000000e+00 0
0.000000e+00 0.000000e+00 0
0.000000e+00 7.956297e-01 0
0.000000e+00 7.956297e-01 0
0.000000e+00 0.000000e+00 0
0.000000e+00 0.000000e+00 0
0.000000e+00 0.000000e+00 0
0.000000e+00 0.000000e+00 0
0.000000e+00 0.000000e+00 0
0.000000e+00 0.000000e+00 0
0.000000e+00 0.000000e+00 0
0.000000e+00 0.000000e+00 0
0.000000e+00 0.000000e+00 0
0.000000e+00 0.000000e+00 0
0.000000e+00 0.000000e+00 0
0.000000e+00 0.000000e+00 0
0.000000e+00 0.000000e+00 0
0.000000e+00 0.000000e+00 0
0.000000e+00 0.000000e+00 0
0.000000e+00 0.000000e+00 0
0.000000e+00 0.000000e+00 0
0.000000e+00 0.000000e+00 0
0.000000e+00 0.000000e+00 0
0.000000e+00 0.000000e+00 0
0.000000e+00 0.000000e+00 0
0.000000e+00 0.000000e+00 0
0.000000e+00 0.000000e+00 0
0.000000e+00 0.000000e+00 0
0.000000e+00 0.000000e+00 0
0.000000e+00 0.000000e+00 0
0.000000e+00 0.000000e+00 0
0.000000e+00 0.000000e+00 0
0.000000e+00 0.000000e+00 0
0.000000e+00 0.000000e+00 0
0.000000e+00 0.000000e+00 0
0.000000e+00 0.000000e+00 0
0.000000e+00 0.000000e+00 0
0.000000e+00 0.000000e+00 0
0.000000e+00 0.000000e+00 0
0.000000e+00 0.000000e+00 0
0.000000e+00 0.000000e+00 0
0.000000e+00 0.000000e+00 0
0.000000e+00 0.000000e+00 0
0.000000e+00 0.000000e+00 0
0.000000e+00 0.000000e+00 0
0.000000e+00 0.000000e+00 0
0.000000e+00 0.000000e+00 0
0.000000e+00 0.000000e+00 0
0.000000e+00 0.000000e+00 0