<?xml version="1.0"?>
<VTKFile type="StructuredGrid">
<StructuredGrid WholeExtent="0 78 0 28 0 0 ">
<Piece Extent="0 78 0 28 0 0 ">
<Points>
<DataArray type="Float64" format="ascii" NumberOfComponents="3">
0.000000e+00 0.000000e+00 0.000000e+00
1.025641e-01 0.000000e+00 0.000000e+00
2.051282e-01 0.000000e+00 0.000000e+00
3.076923e-01 0.000000e+00 0.000000e+00
4.102564e-01 0.000000e+00 0.000000e+00
5.128205e-01 0.000000e+00 0.000000e+00
6.153846e-01 0.000000e+00 0.000000e+00
7.179487e-01 0.000000e+00 0.000000e+00
8.205128e-01 0.000000e+00 0.000000e+00
9.230769e-01 0.000000e+00 0.000000e+00
1.025641e+00 0.000000e+00 0.000000e+00
1.128205e+00 0.000000e+00 0.000000e+00
1.230769e+00 0.000000e+00 0.000000e+00
1.333333e+00 0.000000e+00 0.000000e+00
1.435897e+00 0.000000e+00 0.000000e+00
1.538462e+00 0.000000e+00 0.000000e+00
1.641026e+00 0.000000e+00 0.000000e+00
1.743590e+00 0.000000e+00 0.000000e+00
1.846154e+00 0.000000e+00 0.000000e+00
1.948718e+00 0.000000e+00 0.000000e+00
2.051282e+00 0.000000e+00 0.000000e+00
2.153846e+00 0.000000e+00 0.000000e+00
2.256410e+00 0.000000e+00 0.000000e+00
2.358974e+00 0.000000e+00 0.000000e+00
2.461538e+00 0.000000e+00 0.000000e+00
2.564103e+00 0.000000e+00 0.000000e+00
2.666667e+00 0.000000e+00 0.000000e+00
2.769231e+00 0.000000e+00 0.000000e+00
2.871795e+00 0.000000e+00 0.000000e+00
2.974359e+00 0.000000e+00 0.000000e+00
3.076923e+00 0.000000e+00 0.000000e+00
3.179487e+00 0.000000e+00 0.000000e+00
3.282051e+00 0.000000e+00 0.000000e+00
3.384615e+00 0.000000e+00 0.000000e+00
3.487179e+00 0.000000e+00 0.000000e+00
3.589744e+00 0.000000e+00 0.000000e+00
3.692308e+00 0.000000e+00 0.000000e+00
3.794872e+00 0.000000e+00 0.000000e+00
3.897436e+00 0.000000e+00 0.000000e+00
4.000000e+00 0.000000e+00 0.000000e+00
4.102564e+00 0.000000e+00 0.000000e+00
4.205128e+00 0.000000e+00 0.000000e+00
4.307692e+00 0.000000e+00 0.000000e+00
4.410256e+00 0.000000e+00 0.000000e+00
4.512821e+00 0.000000e+00 0.000000e+00
4.615385e+00 0.000000e+00 0.000000e+00
4.717949e+00 0.000000e+00 0.000000e+00
4.820513e+00 0.000000e+00 0.000000e+00
4.923077e+00 0.000000e+00 0.000000e+00
5.025641e+00 0.000000e+00 0.000000e+00
5.128205e+00 0.000000e+00 0.000000e+00
5.230769e+00 0.000000e+00 0.000000e+00
5.333333e+00 0.000000e+00 0.000000e+00
5.435897e+00 0.000000e+00 0.000000e+00
5.538462e+00 0.000000e+00 0.000000e+00
5.641026e+00 0.000000e+00 0.000000e+00
5.743590e+00 0.000000e+00 0.000000e+00
5.846154e+00 0.000000e+00 0.000000e+00
5.948718e+00 0.000000e+00 0.000000e+00
6.051282e+00 0.000000e+00 0.000000e+00
6.153846e+00 0.000000e+00 0.000000e+00
6.256410e+00 0.000000e+00 0.000000e+00
6.358974e+00 0.000000e+00 0.000000e+00
6.461538e+00 0.000000e+00 0.000000e+00
6.564103e+00 0.000000e+00 0.000000e+00
6.666667e+00 0.000000e+00 0.000000e+00
6.769231e+00 0.000000e+00 0.000000e+00
6.871795e+00 0.000000e+00 0.000000e+00
6.974359e+00 0.000000e+00 0.000000e+00
7.076923e+00 0.000000e+00 0.000000e+00
7.179487e+00 0.000000e+00 0.000000e+00
7.282051e+00 0.000000e+00 0.000000e+00
7.384615e+00 0.000000e+00 0.000000e+00
7.487179e+00 0.000000e+00 0.000000e+00
7.589744e+00 0.000000e+00 0.000000e+00
7.692308e+00 0.000000e+00 0.000000e+00
7.794872e+00 0.000000e+00 0.000000e+00
7.897436e+00 0.000000e+00 0.000000e+00
8.000000e+00 0.000000e+00 0.000000e+00
0.000000e+00 1.071429e-01 0.000000e+00
1.025641e-01 1.071429e-01 0.000000e+00
2.051282e-01 1.071429e-01 0.000000e+00
3.076923e-01 1.071429e-01 0.000000e+00
4.102564e-01 1.071429e-01 0.000000e+00
5.128205e-01 1.071429e-01 0.000000e+00
6.153846e-01 1.071429e-01 0.000000e+00
7.179487e-01 1.071429e-01 0.000000e+00
8.205128e-01 1.071429e-01 0.000000e+00
9.230769e-01 1.071429e-01 0.000000e+00
1.025641e+00 1.071429e-01 0.000000e+00
1.128205e+00 1.071429e-01 0.000000e+00
1.230769e+00 1.071429e-01 0.000000e+00
1.333333e+00 1.071429e-01 0.000000e+00
1.435897e+00 1.071429e-01 0.000000e+00
1.538462e+00 1.071429e-01 0.000000e+00
1.641026e+00 1.071429e-01 0.000000e+00
1.743590e+00 1.071429e-01 0.000000e+00
1.846154e+00 1.071429e-01 0.000000e+00
1.948718e+00 1.071429e-01 0.000000e+00
2.051282e+00 1.071429e-01 0.000000e+00
2.153846e+00 1.071429e-01 0.000000e+00
2.256410e+00 1.071429e-01 0.000000e+00
2.358974e+00 1.071429e-01 0.000000e+00
2.461538e+00 1.071429e-01 0.000000e+00
2.564103e+00 1.071429e-01 0.000000e+00
2.666667e+00 1.071429e-01 0.000000e+00
2.769231e+00 1.071429e-01 0.000000e+00
2.871795e+00 1.071429e-01 0.000000e+00
2.974359e+00 1.071429e-01 0.000000e+00
3.076923e+00 1.071429e-01 0.000000e+00
3.179487e+00 1.071429e-01 0.000000e+00
3.282051e+00 1.071429e-01 0.000000e+00
3.384615e+00 1.071429e-01 0.000000e+00
3.487179e+00 1.071429e-01 0.000000e+00
3.589744e+00 1.071429e-01 0.000000e+00
3.692308e+00 1.071429e-01 0.000000e+00
3.794872e+00 1.071429e-01 0.000000e+00
3.897436e+00 1.071429e-01 0.000000e+00
4.000000e+00 1.071429e-01 0.000000e+00
4.102564e+00 1.071429e-01 0.000000e+00
4.205128e+00 1.071429e-01 0.000000e+00
4.307692e+00 1.071429e-01 0.000000e+00
4.410256e+00 1.071429e-01 0.000000e+00
4.512821e+00 1.071429e-01 0.000000e+00
4.615385e+00 1.071429e-01 0.000000e+00
4.717949e+00 1.071429e-01 0.000000e+00
4.820513e+00 1.071429e-01 0.000000e+00
4.923077e+00 1.071429e-01 0.000000e+00
5.025641e+00 1.071429e-01 0.000000e+00
5.128205e+00 1.071429e-01 0.000000e+00
5.230769e+00 1.071429e-01 0.000000e+00
5.333333e+00 1.071429e-01 0.000000e+00
5.435897e+00 1.071429e-01 0.000000e+00
5.538462e+00 1.071429e-01 0.000000e+00
5.641026e+00 1.071429e-01 0.000000e+00
5.743590e+00 1.071429e-01 0.000000e+00
5.846154e+00 1.071429e-01 0.000000e+00
5.948718e+00 1.071429e-01 0.000000e+00
6.051282e+00 1.071429e-01 0.000000e+00
6.153846e+00 1.071429e-01 0.000000e+00
6.256410e+00 1.071429e-01 0.000000e+00
6.358974e+00 1.071429e-01 0.000000e+00
6.461538e+00 1.071429e-01 0.000000e+00
6.564103e+00 1.071429e-01 0.000000e+00
6.666667e+00 1.071429e-01 0.000000e+00
6.769231e+00 1.071429e-01 0.000000e+00
6.871795e+00 1.071429e-01 0.000000e+00
6.974359e+00 1.071429e-01 0.000000e+00
7.076923e+00 1.071429e-01 0.000000e+00
7.179487e+00 1.071429e-01 0.000000e+00
7.282051e+00 1.071429e-01 0.000000e+00
7.384615e+00 1.071429e-01 0.000000e+00
7.487179e+00 1.071429e-01 0.000000e+00
7.589744e+00 1.071429e-01 0.000000e+00
7.692308e+00 1.071429e-01 0.000000e+00
7.794872e+00 1.071429e-01 0.000000e+00
7.897436e+00 1.071429e-01 0.000000e+00
8.000000e+00 1.071429e-01 0.000000e+00
0.000000e+00 2.142857e-01 0.000000e+00
1.025641e-01 2.142857e-01 0.000000e+00
2.051282e-01 2.142857e-01 0.000000e+00
3.076923e-01 2.142857e-01 0.000000e+00
4.102564e-01 2.142857e-01 0.000000e+00
5.128205e-01 2.142857e-01 0.000000e+00
6.153846e-01 2.142857e-01 0.000000e+00
7.179487e-01 2.142857e-01 0.000000e+00
8.205128e-01 2.142857e-01 0.000000e+00
9.230769e-01 2.142857e-01 0.000000e+00
1.025641e+00 2.142857e-01 0.000000e+00
1.128205e+00 2.142857e-01 0.000000e+00
1.230769e+00 2.142857e-01 0.000000e+00
1.333333e+00 2.142857e-01 0.000000e+00
1.435897e+00 2.142857e-01 0.000000e+00
1.538462e+00 2.142857e-01 0.000000e+00
1.641026e+00 2.142857e-01 0.000000e+00
1.743590e+00 2.142857e-01 0.000000e+00
1.846154e+00 2.142857e-01 0.000000e+00
1.948718e+00 2.142857e-01 0.000000e+00
2.051282e+00 2.142857e-01 0.000000e+00
2.153846e+00 2.142857e-01 0.000000e+00
2.256410e+00 2.142857e-01 0.000000e+00
2.358974e+00 2.142857e-01 0.000000e+00
2.461538e+00 2.142857e-01 0.000000e+00
2.564103e+00 2.142857e-01 0.000000e+00
2.666667e+00 2.142857e-01 0.000000e+00
2.769231e+00 2.142857e-01 0.000000e+00
2.871795e+00 2.142857e-01 0.000000e+00
2.974359e+00 2.142857e-01 0.000000e+00
3.076923e+00 2.142857e-01 0.000000e+00
3.179487e+00 2.142857e-01 0.000000e+00
3.282051e+00 2.142857e-01 0.000000e+00
3.384615e+00 2.142857e-01 0.000000e+00
3.487179e+00 2.142857e-01 0.000000e+00
3.589744e+00 2.142857e-01 0.000000e+00
3.692308e+00 2.142857e-01 0.000000e+00
3.794872e+00 2.142857e-01 0.000000e+00
3.897436e+00 2.142857e-01 0.000000e+00
4.000000e+00 2.142857e-01 0.000000e+00
4.102564e+00 2.142857e-01 0.000000e+00
4.205128e+00 2.142857e-01 0.000000e+00
4.307692e+00 2.142857e-01 0.000000e+00
4.410256e+00 2.142857e-01 0.000000e+00
4.512821e+00 2.142857e-01 0.000000e+00
4.615385e+00 2.142857e-01 0.000000e+00
4.717949e+00 2.142857e-01 0.000000e+00
4.820513e+00 2.142857e-01 0.000000e+00
4.923077e+00 2.142857e-01 0.000000e+00
5.025641e+00 2.142857e-01 0.000000e+00
5.128205e+00 2.142857e-01 0.000000e+00
5.230769e+00 2.142857e-01 0.000000e+00
5.333333e+00 2.142857e-01 0.000000e+00
5.435897e+00 2.142857e-01 0.000000e+00
5.538462e+00 2.142857e-01 0.000000e+00
5.641026e+00 2.142857e-01 0.000000e+00
5.743590e+00 2.142857e-01 0.000000e+00
5.846154e+00 2.142857e-01 0.000000e+00
5.948718e+00 2.142857e-01 0.000000e+00
6.051282e+00 2.142857e-01 0.000000e+00
6.153846e+00 2.142857e-01 0.000000e+00
6.256410e+00 2.142857e-01 0.000000e+00
6.358974e+00 2.142857e-01 0.000000e+00
6.461538e+00 2.142857e-01 0.000000e+00
6.564103e+00 2.142857e-01 0.000000e+00
6.666667e+00 2.142857e-01 0.000000e+00
6.769231e+00 2.142857e-01 0.000000e+00
6.871795e+00 2.142857e-01 0.000000e+00
6.974359e+00 2.142857e-01 0.000000e+00
7.076923e+00 2.142857e-01 0.000000e+00
7.179487e+00 2.142857e-01 0.000000e+00
7.282051e+00 2.142857e-01 0.000000e+00
7.384615e+00 2.142857e-01 0.000000e+00
7.487179e+00 2.142857e-01 0.000000e+00
7.589744e+00 2.142857e-01 0.000000e+00
7.692308e+00 2.142857e-01 0.000000e+00
7.794872e+00 2.142857e-01 0.000000e+00
7.897436e+00 2.142857e-01 0.000000e+00
8.000000e+00 2.142857e-01 0.000000e+00
0.000000e+00 3.214286e-01 0.000000e+00
1.025641e-01 3.214286e-01 0.000000e+00
2.051282e-01 3.214286e-01 0.000000e+00
3.076923e-01 3.214286e-01 0.000000e+00
4.102564e-01 3.214286e-01 0.000000e+00
5.128205e-01 3.214286e-01 0.000000e+00
6.153846e-01 3.214286e-01 0.000000e+00
7.179487e-01 3.214286e-01 0.000000e+00
8.205128e-01 3.214286e-01 0.000000e+00
9.230769e-01 3.214286e-01 0.000000e+00
1.025641e+00 3.214286e-01 0.000000e+00
1.128205e+00 3.214286e-01 0.000000e+00
1.230769e+00 3.214286e-01 0.000000e+00
1.333333e+00 3.214286e-01 0.000000e+00
[...]
<PointData>
<DataArray Name="Velocity" type="Float64" format="ascii" NumberOfComponents="3">
0.000000e+00 0.000000e+00 0
0.000000e+00 0.000000e+00 0
0.000000e+00 0.000000e+00 0
0.000000e+00 0.000000e+00 0
0.000000e+00 0.000000e+00 0
0.000000e+00 0.000000e+00 0
0.000000e+00 0.000000e+00 0
0.000000e+00 0.000000e+00 0
0.000000e+00 0.000000e+00 0
0.000000e+00 0.000000e+00 0
0.000000e+00 0.000000e+00 0
0.000000e+00 0.000000e+00 0
0.000000e+00 0.000000e+00 0
2.527578e-03 0.000000e+00 0
0.000000e+00 0.000000e+00 0
0.000000e+00 0.000000e+00 0
0.000000e+00 0.000000e+00 0
0.000000e+00 0.000000e+00 0
0.000000e+00 0.000000e+00 0
0.000000e+00 0.000000e+00 0
0.000000e+00 0.000000e+00 0
0.000000e+00 0.000000e+00 0
0.000000e+00 0.000000e+00 0
0.000000e+00 0.000000e+00 0
0.000000e+00 0.000000e+00 0
0.000000e+00 0.000000e+00 0
0.000000e+00 0.000000e+00 0
0.000000e+00 0.000000e+00 0
0.000000e+00 0.000000e+00 0
0.000000e+00 0.000000e+00 0
0.000000e+00 0.000000e+00 0
0.000000e+00 0.000000e+00 0
0.000000e+00 0.000000e+00 0
0.000000e+00 0.000000e+00 0
0.000000e+00 0.000000e+00 0
0.000000e+00 0.000000e+00 0
0.000000e+00 0.000000e+00 0
0.000000e+00 0.000000e+00 0
0.000000e+00 0.000000e+00 0
0.000000e+00 0.000000e+00 0
0.000000e+00 0.000000e+00 0
0.000000e+00 0.000000e+00 0
0.000000e+00 0.000000e+00 0
0.000000e+00 0.000000e+00 0
0.000000e+00 0.000000e+00 0
0.000000e+00 0.000000e+00 0
0.000000e+00 0.000000e+00 0
0.000000e+00 0.000000e+00 0
0.000000e+00 0.000000e+00 0
0.000000e+00 0.000000e+00 0
0.000000e+00 0.000000e+00 0
0.000000e+00 0.000000e+00 0
0.000000e+00 0.000000e+00 0
0.000000e+00 0.000000e+00 0
0.000000e+00 0.000000e+00 0
0.000000e+00 0.000000e+00 0
0.000000e+00 0.000000e+00 0
0.000000e+00 0.000000e+00 0
0.000000e+00 0.000000e+00 0
0.000000e+00 0.000000e+00 0
0.000000e+00 0.000000e+00 0
0.000000e+00 0.000000e+00 0
0.000000e+00 0.000000e+00 0
0.000000e+00 0.000000e+00 0
0.000000e+00 0.000000e+00 0
0.000000e+00 0.000000e+00 0
0.000000e+00 0.000000e+00 0
0.000000e+00 0.000000e+00 0
0.000000e+00 0.000000e+00 0
0.000000e+00 0.000000e+00 0
0.000000e+00 0.000000e+00 0
0.000000e+00 0.000000e+00 0
0.000000e+00 0.000000e+00 0
0.000000e+00 0.000000e+00 0
0.000000e+00 0.000000e+00 0
0.000000e+00 0.000000e+00 0
0.000000e+00 0.000000e+00 0
0.000000e+00 0.000000e+00 0
0.000000e+00 0.000000e+00 0
0.000000e+00 0.000000e+00 0
0.000000e+00 0.000000e+00 0
0.000000e+00 0.000000e+00 0
0.000000e+00 0.000000e+00 0
0.000000e+00 0.000000e+00 0
0.000000e+00 0.000000e+00 0
0.000000e+00 0.000000e+00 0
0.000000e+00 0.000000e+00 0
0.000000e+00 0.000000e+00 0
0.000000e+00 0.000000e+00 0
0.000000e+00 -5.666010e-02 0
-5.614347e-01 -1.288153e-01 0
6.681103e-01 -4.270415e-01 0
1.007831e+00 -3.548863e-01 0
5.208537e-01 0.000000e+00 0
1.127614e-15 0.000000e+00 0
0.000000e+00 0.000000e+00 0
0.000000e+00 0.000000e+00 0
0.000000e+00 0.000000e+00 0
0.000000e+00 0.000000e+00 0
0.000000e+00 0.000000e+00 0
2.513624e-01 1.731839e-01 0
-5.933608e-01 4.372126e-01 0
-1.801733e+00 -1.234169e-01 0
-1.153812e+00 -8.626966e-01 0
-8.501248e-01 -6.374492e-01 0
-4.717729e-01 -3.739285e-01 0
-1.761334e-01 -5.045843e-01 0
1.523925e-01 -4.018316e-01 0
3.151710e-01 7.808068e-02 0
1.364649e-15 0.000000e+00 0
0.000000e+00 -1.870583e-01 0
0.000000e+00 0.000000e+00 0
0.000000e+00 0.000000e+00 0
0.000000e+00 0.000000e+00 0
0.000000e+00 0.000000e+00 0
0.000000e+00 0.000000e+00 0
0.000000e+00 0.000000e+00 0
0.000000e+00 0.000000e+00 0
0.000000e+00 0.000000e+00 0
0.000000e+00 0.000000e+00 0
0.000000e+00 0.000000e+00 0
0.000000e+00 0.000000e+00 0
0.000000e+00 0.000000e+00 0
0.000000e+00 0.000000e+00 0
0.000000e+00 0.000000e+00 0
0.000000e+00 0.000000e+00 0
0.000000e+00 0.000000e+00 0
0.000000e+00 0.000000e+00 0
0.000000e+00 0.000000e+00 0
0.000000e+00 0.000000e+00 0
0.000000e+00 0.000000e+00 0
0.000000e+00 0.000000e+00 0
0.000000e+00 0.000000e+00 0
0.000000e+00 0.000000e+00 0
0.000000e+00 0.000000e+00 0
0.000000e+00 0.000000e+00 0
0.000000e+00 0.000000e+00 0
0.000000e+00 0.000000e+00 0
0.000000e+00 0.000000e+00 0
0.000000e+00 0.000000e+00 0
0.000000e+00 0.000000e+00 0
0.000000e+00 0.000000e+00 0
0.000000e+00 0.000000e+00 0
0.000000e+00 0.000000e+00 0
0.000000e+00 0.000000e+00 0
0.000000e+00 0.000000e+00 0
0.000000e+00 0.000000e+00 0
0.000000e+00 0.000000e+00 0
0.000000e+00 0.000000e+00 0
0.000000e+00 0.000000e+00 0
0.000000e+00 0.000000e+00 0
0.000000e+00 0.000000e+00 0
0.000000e+00 0.000000e+00 0
0.000000e+00 0.000000e+00 0
0.000000e+00 0.000000e+00 0
0.000000e+00 0.000000e+00 0
0.000000e+00 0.000000e+00 0
0.000000e+00 0.000000e+00 0
0.000000e+00 0.000000e+00 0
0.000000e+00 0.000000e+00 0
0.000000e+00 0.000000e+00 0
0.000000e+00 0.000000e+00 0
0.000000e+00 0.000000e+00 0
0.000000e+00 0.000000e+00 0
0.000000e+00 0.000000e+00 0
0.000000e+00 0.000000e+00 0
0.000000e+00 0.000000e+00 0
0.000000e+00 -2.225799e-01 0
4.159002e-01 -3.796356e-01 0
4.387388e-01 -4.055267e-01 0
4.637315e-01 -6.033573e-01 0
6.721703e-01 -3.818485e-01 0
1.041707e+00 -2.696214e-02 0
5.208537e-01 0.000000e+00 0
0.000000e+00 0.000000e+00 0
0.000000e+00 0.000000e+00 0
0.000000e+00 9.331215e-02 0
0.000000e+00 9.331215e-02 0
0.000000e+00 -3.076639e-01 0
5.405438e-01 -7.748417e-02 0
-4.406162e-01 4.942083e-01 0
-2.770323e-01 2.640287e-01 0
0.000000e+00 -4.579808e-01 0
1.412682e-01 -8.029877e-01 0
3.033421e-01 -6.538446e-01 0
3.016327e-01 -6.520299e-01 0
2.274888e-01 -5.132376e-01 0
1.662816e-01 1.591957e-01 0
7.199776e-16 0.000000e+00 0
0.000000e+00 -3.292411e-01 0
0.000000e+00 0.000000e+00 0
0.000000e+00 0.000000e+00 0
0.000000e+00 0.000000e+00 0
0.000000e+00 0.000000e+00 0
0.000000e+00 0.000000e+00 0
0.000000e+00 0.000000e+00 0
0.000000e+00 0.000000e+00 0
0.000000e+00 0.000000e+00 0
0.000000e+00 0.000000e+00 0
0.000000e+00 0.000000e+00 0
0.000000e+00 0.000000e+00 0
0.000000e+00 0.000000e+00 0
0.000000e+00 0.000000e+00 0
0.000000e+00 0.000000e+00 0
0.000000e+00 0.000000e+00 0
0.000000e+00 0.000000e+00 0
0.000000e+00 0.000000e+00 0
0.000000e+00 0.000000e+00 0
0.000000e+00 0.000000e+00 0
0.000000e+00 0.000000e+00 0
0.000000e+00 0.000000e+00 0
0.000000e+00 0.000000e+00 0
0.000000e+00 0.000000e+00 0
0.000000e+00 0.000000e+00 0
0.000000e+00 0.000000e+00 0
0.000000e+00 0.000000e+00 0
0.000000e+00 0.000000e+00 0
0.000000e+00 0.000000e+00 0
0.000000e+00 0.000000e+00 0
0.000000e+00 0.000000e+00 0
0.000000e+00 0.000000e+00 0
0.000000e+00 0.000000e+00 0
0.000000e+00 0.000000e+00 0
0.000000e+00 0.000000e+00 0
0.000000e+00 0.000000e+00 0
0.000000e+00 0.000000e+00 0
0.000000e+00 0.000000e+00 0
0.000000e+00 0.000000e+00 0
0.000000e+00 0.000000e+00 0
0.000000e+00 0.000000e+00 0
0.000000e+00 0.000000e+00 0
0.000000e+00 0.000000e+00 0
0.000000e+00 0.000000e+00 0
0.000000e+00 0.000000e+00 0
0.000000e+00 0.000000e+00 0
0.000000e+00 0.000000e+00 0
0.000000e+00 0.000000e+00 0
0.000000e+00 0.000000e+00 0
0.000000e+00 0.000000e+00 0
0.000000e+00 0.000000e+00 0
0.000000e+00 0.000000e+00 0
0.000000e+00 0.000000e+00 0
0.000000e+00 0.000000e+00 0
0.000000e+00 0.000000e+00 0
0.000000e+00 0.000000e+00 0
0.000000e+00 -1.992908e-01 0
4.120808e-01 -1.991798e-01 0
1.189564e+00 -9.943061e-02 0
1.274807e+00 -1.978052e-01 0
1.151287e+00 -1.470679e-01 0
1.333453e+00 -1.753829e-01 0
1.259526e+00 -2.136900e-01 0
1.062234e+00 -8.711142e-02 0
4.005215e-01 0.000000e+00 0
2.596107e-01 0.000000e+00 0
2.878412e-01 2.417270e-17 0
6.966079e-01 2.417270e-17 0
6.075102e-01 -3.393005e-01 0
6.080963e-01 3.638573e-01 0
3.504997e-01 7.031578e-01 0
1.000463e+00 6.839716e-17 0
9.945996e-01 -2.790154e-01 0
1.376854e+00 -5.414221e-01 0
1.241549e+00 -4.723512e-01 0
9.783221e-01 -4.253448e-01 0
4.728748e-01 -2.604380e-01 0
8.600309e-02 3.157253e-01 0
3.723822e-16 0.000000e+00 0
0.000000e+00 -3.607631e-01 0
0.000000e+00 0.000000e+00 0
0.000000e+00 0.000000e+00 0
0.000000e+00 0.000000e+00 0
0.000000e+00 0.000000e+00 0
0.000000e+00 0.000000e+00 0
0.000000e+00 0.000000e+00 0
0.000000e+00 0.000000e+00 0
0.000000e+00 0.000000e+00 0
0.000000e+00 0.000000e+00 0
0.000000e+00 0.000000e+00 0
0.000000e+00 0.000000e+00 0
0.000000e+00 0.000000e+00 0
0.000000e+00 0.000000e+00 0
0.000000e+00 0.000000e+00 0
0.000000e+00 0.000000e+00 0
0.000000e+00 0.000000e+00 0
0.000000e+00 0.000000e+00 0
0.000000e+00 0.000000e+00 0
0.000000e+00 0.000000e+00 0
0.000000e+00 0.000000e+00 0
0.000000e+00 0.000000e+00 0
0.000000e+00 0.000000e+00 0
0.000000e+00 0.000000e+00 0
0.000000e+00 0.000000e+00 0
0.000000e+00 0.000000e+00 0
0.000000e+00 0.000000e+00 0
0.000000e+00 0.000000e+00 0
0.000000e+00 0.000000e+00 0
0.000000e+00 0.000000e+00 0
0.000000e+00 0.000000e+00 0
0.000000e+00 0.000000e+00 0
0.000000e+00 0.000000e+00 0
0.000000e+00 0.000000e+00 0
0.000000e+00 0.000000e+00 0
0.000000e+00 0.000000e+00 0
0.000000e+00 0.000000e+00 0
0.000000e+00 0.000000e+00 0
0.000000e+00 0.000000e+00 0
0.000000e+00 0.000000e+00 0
0.000000e+00 0.000000e+00 0
0.000000e+00 0.000000e+00 0
0.000000e+00 0.000000e+00 0
0.000000e+00 0.000000e+00 0
0.000000e+00 0.000000e+00 0
0.000000e+00 0.000000e+00 0
0.000000e+00 0.000000e+00 0
0.000000e+00 0.000000e+00 0
1.000000e+00 0.000000e+00 0
1.000000e+00 0.000000e+00 0
1.000000e+00 0.000000e+00 0
1.000000e+00 0.000000e+00 0
1.000000e+00 0.000000e+00 0
1.000000e+00 0.000000e+00 0
1.000000e+00 0.000000e+00 0
1.000000e+00 -1.703289e-01 0
1.076519e+00 -4.435525e-01 0
1.637018e+00 -6.508375e-01 0
2.243106e+00 -6.237192e-01 0
2.426573e+00 -3.655420e-01 0
2.441758e+00 -1.407945e-01 0
2.414986e+00 1.360635e-02 0
2.235970e+00 1.161262e-01 0
2.034380e+00 2.045136e-01 0
1.947432e+00 -3.424686e-02 0
1.706518e+00 -1.492164e-01 0
1.739593e+00 -1.412200e-01 0
2.064255e+00 -2.476821e-01 0
1.887339e+00 -1.529852e-01 0
1.466399e+00 3.529254e-01 0
1.818422e+00 4.467514e-01 0
2.298131e+00 -1.541823e-01 0
2.178059e+00 -3.782075e-01 0
2.063575e+00 -3.699005e-01 0
2.050886e+00 -2.186562e-01 0
1.845191e+00 1.509598e-01 0
1.179768e+00 4.189170e-01 0
6.286256e-01 2.481116e-01 0
2.721867e-15 1.401432e-02 0
0.000000e+00 0.000000e+00 0
0.000000e+00 0.000000e+00 0
0.000000e+00 0.000000e+00 0
0.000000e+00 0.000000e+00 0
0.000000e+00 0.000000e+00 0
0.000000e+00 0.000000e+00 0
0.000000e+00 0.000000e+00 0
0.000000e+00 0.000000e+00 0
0.000000e+00 0.000000e+00 0
0.000000e+00 0.000000e+00 0
0.000000e+00 0.000000e+00 0
0.000000e+00 0.000000e+00 0
0.000000e+00 0.000000e+00 0
0.000000e+00 0.000000e+00 0
0.000000e+00 0.000000e+00 0
0.000000e+00 0.000000e+00 0
0.000000e+00 0.000000e+00 0
0.000000e+00 0.000000e+00 0
0.000000e+00 0.000000e+00 0
0.000000e+00 0.000000e+00 0
0.000000e+00 0.000000e+00 0
0.000000e+00 0.000000e+00 0
0.000000e+00 0.000000e+00 0
0.000000e+00 0.000000e+00 0
0.000000e+00 0.000000e+00 0
0.000000e+00 0.000000e+00 0
0.000000e+00 0.000000e+00 0
0.000000e+00 0.000000e+00 0
0.000000e+00 0.000000e+00 0
0.000000e+00 0.000000e+00 0
0.000000e+00 0.000000e+00 0
0.000000e+00 0.000000e+00 0
0.000000e+00 0.000000e+00 0
0.000000e+00 0.000000e+00 0
0.000000e+00 0.000000e+00 0
0.000000e+00 0.000000e+00 0
0.000000e+00 0.000000e+00 0
0.000000e+00 0.000000e+00 0
0.000000e+00 0.000000e+00 0
0.000000e+00 0.000000e+00 0
0.000000e+00 0.000000e+00 0
0.000000e+00 0.000000e+00 0
0.000000e+00 0.000000e+00 0
0.000000e+00 0.000000e+00 0
0.000000e+00 0.000000e+00 0
0.000000e+00 0.000000e+00 0
0.000000e+00 0.000000e+00 0
0.000000e+00 0.000000e+00 0
2.000000e+00 0.000000e+00 0
1.980832e+00 0.000000e+00 0
2.023879e+00 0.000000e+00 0
2.092706e+00 0.000000e+00 0
2.172238e+00 0.000000e+00 0
2.253241e+00 0.000000e+00 0
2.327000e+00 0.000000e+00 0
2.372297e+00 -2.913039e-01 0
2.416722e+00 -7.195720e-01 0
2.493225e+00 -1.061303e+00 0
2.911055e+00 -9.242338e-01 0
2.805540e+00 -4.053264e-01 0
2.691207e+00 -1.349646e-01 0
2.670762e+00 2.429063e-02 0
2.704232e+00 1.307807e-01 0
2.781926e+00 1.708138e-01 0
2.917358e+00 1.028825e-01 0
2.834319e+00 2.104211e-02 0
2.842342e+00 -3.104826e-02 0
2.725337e+00 -4.999829e-02 0
2.622558e+00 6.771883e-02 0
2.369580e+00 3.273219e-01 0
2.594996e+00 3.584716e-01 0
2.382025e+00 1.097324e-01 0
2.189997e+00 -1.179051e-01 0
2.131539e+00 -3.622907e-01 0
2.193144e+00 -2.442183e-01 0
1.139040e+00 4.846628e-01 0
8.567331e-01 1.022196e+00 0
1.032940e+00 1.154849e+00 0
4.472495e-15 0.000000e+00 0
0.000000e+00 -6.123831e-01 0
0.000000e+00 0.000000e+00 0
0.000000e+00 0.000000e+00 0
0.000000e+00 0.000000e+00 0
0.000000e+00 0.000000e+00 0
0.000000e+00 0.000000e+00 0
0.000000e+00 0.000000e+00 0
0.000000e+00 0.000000e+00 0
0.000000e+00 0.000000e+00 0
0.000000e+00 0.000000e+00 0
0.000000e+00 0.000000e+00 0
0.000000e+00 0.000000e+00 0
0.000000e+00 0.000000e+00 0
0.000000e+00 0.000000e+00 0
0.000000e+00 0.000000e+00 0
0.000000e+00 0.000000e+00 0
0.000000e+00 0.000000e+00 0
0.000000e+00 0.000000e+00 0
0.000000e+00 0.000000e+00 0
0.000000e+00 0.000000e+00 0
0.000000e+00 0.000000e+00 0
0.000000e+00 0.000000e+00 0
0.000000e+00 0.000000e+00 0
0.000000e+00 0.000000e+00 0
0.000000e+00 0.000000e+00 0
0.000000e+00 0.000000e+00 0
0.000000e+00 0.000000e+00 0
0.000000e+00 0.000000e+00 0
0.000000e+00 0.000000e+00 0
0.000000e+00 0.000000e+00 0
0.000000e+00 0.000000e+00 0
0.000000e+00 0.000000e+00 0
0.000000e+00 0.000000e+00 0
0.000000e+00 0.000000e+00 0
0.000000e+00 0.000000e+00 0
0.000000e+00 0.000000e+00 0
0.000000e+00 0.000000e+00 0
0.000000e+00 0.000000e+00 0
0.000000e+00 0.000000e+00 0
0.000000e+00 0.000000e+00 0
0.000000e+00 0.000000e+00 0
0.000000e+00 0.000000e+00 0
0.000000e+00 0.000000e+00 0
0.000000e+00 0.000000e+00 0
0.000000e+00 0.000000e+00 0
0.000000e+00 0.000000e+00 0
0.000000e+00 0.000000e+00 0
0.000000e+00 0.000000e+00 0
2.000000e+00 0.000000e+00 0
1.950524e+00 -2.850270e-01 0
1.963650e+00 -4.236712e-01 0
2.009974e+00 -4.924788e-01 0
2.069341e+00 -5.261123e-01 0
2.126238e+00 -5.357449e-01 0
2.163349e+00 -5.149521e-01 0
2.161586e+00 -5.051037e-01 0
2.054446e+00 -6.109207e-01 0
1.853745e+00 -1.167240e+00 0
1.441613e+00 -8.140977e-01 0
2.683617e-15 0.000000e+00 0
2.525757e-15 0.000000e+00 0
2.367898e-15 0.000000e+00 0
2.525757e-15 0.000000e+00 0
2.683617e-15 0.000000e+00 0
2.841477e-15 0.000000e+00 0
2.999337e-15 0.000000e+00 0
2.781451e-15 0.000000e+00 0
2.841477e-15 0.000000e+00 0
2.841477e-15 2.093660e-01 0
1.222096e+00 3.817178e-01 0
1.290658e+00 4.870522e-01 0
2.517646e+00 3.912280e-01 0
2.439827e+00 -4.750889e-02 0
1.016968e+00 -3.731876e-01 0
1.016968e+00 -2.491510e-01 0
0.000000e+00 0.000000e+00 0
0.000000e+00 8.443672e-01 0
3.135830e-01 1.834845e+00 0
1.357773e-15 0.000000e+00 0
0.000000e+00 -9.904775e-01 0
0.000000e+00 0.000000e+00 0
0.000000e+00 0.000000e+00 0
0.000000e+00 0.000000e+00 0
0.000000e+00 0.000000e+00 0
0.000000e+00 0.000000e+00 0
0.000000e+00 0.000000e+00 0
0.000000e+00 0.000000e+00 0
0.000000e+00 0.000000e+00 0
0.000000e+00 0.000000e+00 0
0.000000e+00 0.000000e+00 0
0.000000e+00 0.000000e+00 0
0.000000e+00 0.000000e+00 0
0.000000e+00 0.000000e+00 0
0.000000e+00 0.000000e+00 0
0.000000e+00 0.000000e+00 0
0.000000e+00 0.000000e+00 0
0.000000e+00 0.000000e+00 0
0.000000e+00 0.000000e+00 0
0.000000e+00 0.000000e+00 0
0.000000e+00 0.000000e+00 0
0.000000e+00 0.000000e+00 0
0.000000e+00 0.000000e+00 0
0.000000e+00 0.000000e+00 0
0.000000e+00 0.000000e+00 0
0.000000e+00 0.000000e+00 0
0.000000e+00 0.000000e+00 0
0.000000e+00 0.000000e+00 0
0.000000e+00 0.000000e+00 0
0.000000e+00 0.000000e+00 0
0.000000e+00 0.000000e+00 0
0.000000e+00 0.000000e+00 0
0.000000e+00 0.000000e+00 0
0.000000e+00 0.000000e+00 0
0.000000e+00 0.000000e+00 0
0.000000e+00 0.000000e+00 0
0.000000e+00 0.000000e+00 0
0.000000e+00 0.000000e+00 0
0.000000e+00 0.000000e+00 0
0.000000e+00 0.000000e+00 0
0.000000e+00 0.000000e+00 0
0.000000e+00 0.000000e+00 0
0.000000e+00 0.000000e+00 0
0.000000e+00 0.000000e+00 0
0.000000e+00 0.000000e+00 0
0.000000e+00 0.000000e+00 0
0.000000e+00 0.000000e+00 0
0.000000e+00 0.000000e+00 0
2.000000e+00 0.000000e+00 0
1.967441e+00 -2.221107e-01 0
1.930565e+00 -3.689066e-01 0
1.894987e+00 -4.479071e-01 0
1.852999e+00 -4.798667e-01 0
1.798057e+00 -4.722801e-01 0
1.719666e+00 -4.275083e-01 0
1.606628e+00 -3.775464e-01 0
1.406489e+00 -3.979890e-01 0
1.060835e+00 -5.693956e-01 0
0.000000e+00 -7.498342e-16 0
-1.292931e+00 3.507877e-01 0
-1.183681e+00 0.000000e+00 0
-1.163734e+00 0.000000e+00 0
-1.206934e+00 0.000000e+00 0
-1.288926e+00 0.000000e+00 0
-1.370448e+00 0.000000e+00 0
-1.387412e+00 0.000000e+00 0
-1.390591e+00 0.000000e+00 0
-1.357690e+00 0.000000e+00 0
-1.342729e+00 0.000000e+00 0
0.000000e+00 0.000000e+00 0
0.000000e+00 3.147004e-01 0
1.433289e+00 3.912280e-01 0
1.433289e+00 7.652768e-02 0
6.205957e-15 0.000000e+00 0
0.000000e+00 0.000000e+00 0
0.000000e+00 0.000000e+00 0
0.000000e+00 9.766068e-01 0
-2.578009e-01 1.906951e+00 0
-2.127785e-01 1.073941e-15 0
0.000000e+00 -9.303446e-01 0
0.000000e+00 0.000000e+00 0
0.000000e+00 0.000000e+00 0
0.000000e+00 0.000000e+00 0
0.000000e+00 0.000000e+00 0
0.000000e+00 0.000000e+00 0
0.000000e+00 0.000000e+00 0
0.000000e+00 0.000000e+00 0
0.000000e+00 0.000000e+00 0
0.000000e+00 0.000000e+00 0
0.000000e+00 0.000000e+00 0
0.000000e+00 0.000000e+00 0
0.000000e+00 0.000000e+00 0
0.000000e+00 0.000000e+00 0
0.000000e+00 0.000000e+00 0
0.000000e+00 0.000000e+00 0
0.000000e+00 0.000000e+00 0
0.000000e+00 0.000000e+00 0
0.000000e+00 0.000000e+00 0
0.000000e+00 0.000000e+00 0
0.000000e+00 0.000000e+00 0
0.000000e+00 0.000000e+00 0
0.000000e+00 0.000000e+00 0
0.000000e+00 0.000000e+00 0
0.000000e+00 0.000000e+00 0
0.000000e+00 0.000000e+00 0
0.000000e+00 0.000000e+00 0
0.000000e+00 0.000000e+00 0
0.000000e+00 0.000000e+00 0
0.000000e+00 0.000000e+00 0
0.000000e+00 0.000000e+00 0
0.000000e+00 0.000000e+00 0
0.000000e+00 0.000000e+00 0
0.000000e+00 0.000000e+00 0
0.000000e+00 0.000000e+00 0
0.000000e+00 0.000000e+00 0
0.000000e+00 0.000000e+00 0
0.000000e+00 0.000000e+00 0
0.000000e+00 0.000000e+00 0
0.000000e+00 0.000000e+00 0
0.000000e+00 0.000000e+00 0
0.000000e+00 0.000000e+00 0
0.000000e+00 0.000000e+00 0
0.000000e+00 0.000000e+00 0
0.000000e+00 0.000000e+00 0
0.000000e+00 0.000000e+00 0
0.000000e+00 0.000000e+00 0
0.000000e+00 0.000000e+00 0
2.000000e+00 0.000000e+00 0
1.975365e+00 -2.124971e-01 0
1.925707e+00 -3.479846e-01 0
1.861359e+00 -4.114517e-01 0
1.784356e+00 -4.248576e-01 0
1.699770e+00 -3.964620e-01 0
1.611370e+00 -3.149788e-01 0
1.503861e+00 -1.779474e-01 0
1.221714e+00 -4.076413e-02 0
7.527138e-01 1.537543e-01 0
0.000000e+00 3.354522e-16 0
0.000000e+00 -1.458123e-01 0
0.000000e+00 0.000000e+00 0
0.000000e+00 0.000000e+00 0
0.000000e+00 0.000000e+00 0
0.000000e+00 0.000000e+00 0
0.000000e+00 0.000000e+00 0
0.000000e+00 0.000000e+00 0
0.000000e+00 0.000000e+00 0
0.000000e+00 0.000000e+00 0
0.000000e+00 0.000000e+00 0
0.000000e+00 0.000000e+00 0
0.000000e+00 0.000000e+00 0
0.000000e+00 0.000000e+00 0
0.000000e+00 0.000000e+00 0
0.000000e+00 0.000000e+00 0
0.000000e+00 0.000000e+00 0
0.000000e+00 0.000000e+00 0
0.000000e+00 9.766068e-01 0
-4.105977e-01 2.013021e+00 0
-3.662222e-01 1.036415e+00 0
0.000000e+00 0.000000e+00 0
0.000000e+00 0.000000e+00 0
0.000000e+00 0.000000e+00 0
0.000000e+00 0.000000e+00 0
0.000000e+00 0.000000e+00 0
0.000000e+00 0.000000e+00 0
0.000000e+00 0.000000e+00 0
0.000000e+00 0.000000e+00 0
0.000000e+00 0.000000e+00 0
0.000000e+00 0.000000e+00 0
0.000000e+00 0.000000e+00 0
0.000000e+00 0.000000e+00 0
0.000000e+00 0.000000e+00 0
0.000000e+00 0.000000e+00 0
0.000000e+00 0.000000e+00 0
0.000000e+00 0.000000e+00 0
0.000000e+00 0.000000e+00 0
0.000000e+00 0.000000e+00 0
0.000000e+00 0.000000e+00 0
0.000000e+00 0.000000e+00 0
0.000000e+00 0.000000e+00 0
0.000000e+00 0.000000e+00 0
0.000000e+00 0.000000e+00 0
0.000000e+00 0.000000e+00 0
0.000000e+00 0.000000e+00 0
0.000000e+00 0.000000e+00 0
0.000000e+00 0.000000e+00 0
0.000000e+00 0.000000e+00 0
0.000000e+00 0.000000e+00 0
0.000000e+00 0.000000e+00 0
0.000000e+00 0.000000e+00 0
0.000000e+00 0.000000e+00 0
0.000000e+00 0.000000e+00 0
0.000000e+00 0.000000e+00 0
0.000000e+00 0.000000e+00 0
0.000000e+00 0.000000e+00 0
0.000000e+00 0.000000e+00 0
0.000000e+00 0.000000e+00 0
0.000000e+00 0.000000e+00 0
0.000000e+00 0.000000e+00 0
0.000000e+00 0.000000e+00 0
0.000000e+00 0.000000e+00 0
0.000000e+00 0.000000e+00 0