<?xml version="1.0"?>
<VTKFile type="StructuredGrid">
<StructuredGrid WholeExtent="0 78 0 28 0 0 ">
<Piece Extent="0 78 0 28 0 0 ">
<Points>
<DataArray type="Float64" format="ascii" NumberOfComponents="3">
0.000000e+00 0.000000e+00 0.000000e+00
1.025641e-01 0.000000e+00 0.000000e+00
2.051282e-01 0.000000e+00 0.000000e+00
3.076923e-01 0.000000e+00 0.000000e+00
4.102564e-01 0.000000e+00 0.000000e+00
5.128205e-01 0.000000e+00 0.000000e+00
6.153846e-01 0.000000e+00 0.000000e+00
7.179487e-01 0.000000e+00 0.000000e+00
8.205128e-01 0.000000e+00 0.000000e+00
9.230769e-01 0.000000e+00 0.000000e+00
1.025641e+00 0.000000e+00 0.000000e+00
1.128205e+00 0.000000e+00 0.000000e+00
1.230769e+00 0.000000e+00 0.000000e+00
1.333333e+00 0.000000e+00 0.000000e+00
1.435897e+00 0.000000e+00 0.000000e+00
1.538462e+00 0.000000e+00 0.000000e+00
1.641026e+00 0.000000e+00 0.000000e+00
1.743590e+00 0.000000e+00 0.000000e+00
1.846154e+00 0.000000e+00 0.000000e+00
1.948718e+00 0.000000e+00 0.000000e+00
2.051282e+00 0.000000e+00 0.000000e+00
2.153846e+00 0.000000e+00 0.000000e+00
2.256410e+00 0.000000e+00 0.000000e+00
2.358974e+00 0.000000e+00 0.000000e+00
2.461538e+00 0.000000e+00 0.000000e+00
2.564103e+00 0.000000e+00 0.000000e+00
2.666667e+00 0.000000e+00 0.000000e+00
2.769231e+00 0.000000e+00 0.000000e+00
2.871795e+00 0.000000e+00 0.000000e+00
2.974359e+00 0.000000e+00 0.000000e+00
3.076923e+00 0.000000e+00 0.000000e+00
3.179487e+00 0.000000e+00 0.000000e+00
3.282051e+00 0.000000e+00 0.000000e+00
3.384615e+00 0.000000e+00 0.000000e+00
3.487179e+00 0.000000e+00 0.000000e+00
3.589744e+00 0.000000e+00 0.000000e+00
3.692308e+00 0.000000e+00 0.000000e+00
3.794872e+00 0.000000e+00 0.000000e+00
3.897436e+00 0.000000e+00 0.000000e+00
4.000000e+00 0.000000e+00 0.000000e+00
4.102564e+00 0.000000e+00 0.000000e+00
4.205128e+00 0.000000e+00 0.000000e+00
4.307692e+00 0.000000e+00 0.000000e+00
4.410256e+00 0.000000e+00 0.000000e+00
4.512821e+00 0.000000e+00 0.000000e+00
4.615385e+00 0.000000e+00 0.000000e+00
4.717949e+00 0.000000e+00 0.000000e+00
4.820513e+00 0.000000e+00 0.000000e+00
4.923077e+00 0.000000e+00 0.000000e+00
5.025641e+00 0.000000e+00 0.000000e+00
5.128205e+00 0.000000e+00 0.000000e+00
5.230769e+00 0.000000e+00 0.000000e+00
5.333333e+00 0.000000e+00 0.000000e+00
5.435897e+00 0.000000e+00 0.000000e+00
5.538462e+00 0.000000e+00 0.000000e+00
5.641026e+00 0.000000e+00 0.000000e+00
5.743590e+00 0.000000e+00 0.000000e+00
5.846154e+00 0.000000e+00 0.000000e+00
5.948718e+00 0.000000e+00 0.000000e+00
6.051282e+00 0.000000e+00 0.000000e+00
6.153846e+00 0.000000e+00 0.000000e+00
6.256410e+00 0.000000e+00 0.000000e+00
6.358974e+00 0.000000e+00 0.000000e+00
6.461538e+00 0.000000e+00 0.000000e+00
6.564103e+00 0.000000e+00 0.000000e+00
6.666667e+00 0.000000e+00 0.000000e+00
6.769231e+00 0.000000e+00 0.000000e+00
6.871795e+00 0.000000e+00 0.000000e+00
6.974359e+00 0.000000e+00 0.000000e+00
7.076923e+00 0.000000e+00 0.000000e+00
7.179487e+00 0.000000e+00 0.000000e+00
7.282051e+00 0.000000e+00 0.000000e+00
7.384615e+00 0.000000e+00 0.000000e+00
7.487179e+00 0.000000e+00 0.000000e+00
7.589744e+00 0.000000e+00 0.000000e+00
7.692308e+00 0.000000e+00 0.000000e+00
7.794872e+00 0.000000e+00 0.000000e+00
7.897436e+00 0.000000e+00 0.000000e+00
8.000000e+00 0.000000e+00 0.000000e+00
0.000000e+00 1.071429e-01 0.000000e+00
1.025641e-01 1.071429e-01 0.000000e+00
2.051282e-01 1.071429e-01 0.000000e+00
3.076923e-01 1.071429e-01 0.000000e+00
4.102564e-01 1.071429e-01 0.000000e+00
5.128205e-01 1.071429e-01 0.000000e+00
6.153846e-01 1.071429e-01 0.000000e+00
7.179487e-01 1.071429e-01 0.000000e+00
8.205128e-01 1.071429e-01 0.000000e+00
9.230769e-01 1.071429e-01 0.000000e+00
1.025641e+00 1.071429e-01 0.000000e+00
1.128205e+00 1.071429e-01 0.000000e+00
1.230769e+00 1.071429e-01 0.000000e+00
1.333333e+00 1.071429e-01 0.000000e+00
1.435897e+00 1.071429e-01 0.000000e+00
1.538462e+00 1.071429e-01 0.000000e+00
1.641026e+00 1.071429e-01 0.000000e+00
1.743590e+00 1.071429e-01 0.000000e+00
1.846154e+00 1.071429e-01 0.000000e+00
1.948718e+00 1.071429e-01 0.000000e+00
2.051282e+00 1.071429e-01 0.000000e+00
2.153846e+00 1.071429e-01 0.000000e+00
2.256410e+00 1.071429e-01 0.000000e+00
2.358974e+00 1.071429e-01 0.000000e+00
2.461538e+00 1.071429e-01 0.000000e+00
2.564103e+00 1.071429e-01 0.000000e+00
2.666667e+00 1.071429e-01 0.000000e+00
2.769231e+00 1.071429e-01 0.000000e+00
2.871795e+00 1.071429e-01 0.000000e+00
2.974359e+00 1.071429e-01 0.000000e+00
3.076923e+00 1.071429e-01 0.000000e+00
3.179487e+00 1.071429e-01 0.000000e+00
3.282051e+00 1.071429e-01 0.000000e+00
3.384615e+00 1.071429e-01 0.000000e+00
3.487179e+00 1.071429e-01 0.000000e+00
3.589744e+00 1.071429e-01 0.000000e+00
3.692308e+00 1.071429e-01 0.000000e+00
3.794872e+00 1.071429e-01 0.000000e+00
3.897436e+00 1.071429e-01 0.000000e+00
4.000000e+00 1.071429e-01 0.000000e+00
4.102564e+00 1.071429e-01 0.000000e+00
4.205128e+00 1.071429e-01 0.000000e+00
4.307692e+00 1.071429e-01 0.000000e+00
4.410256e+00 1.071429e-01 0.000000e+00
4.512821e+00 1.071429e-01 0.000000e+00
4.615385e+00 1.071429e-01 0.000000e+00
4.717949e+00 1.071429e-01 0.000000e+00
4.820513e+00 1.071429e-01 0.000000e+00
4.923077e+00 1.071429e-01 0.000000e+00
5.025641e+00 1.071429e-01 0.000000e+00
5.128205e+00 1.071429e-01 0.000000e+00
5.230769e+00 1.071429e-01 0.000000e+00
5.333333e+00 1.071429e-01 0.000000e+00
5.435897e+00 1.071429e-01 0.000000e+00
5.538462e+00 1.071429e-01 0.000000e+00
5.641026e+00 1.071429e-01 0.000000e+00
5.743590e+00 1.071429e-01 0.000000e+00
5.846154e+00 1.071429e-01 0.000000e+00
5.948718e+00 1.071429e-01 0.000000e+00
6.051282e+00 1.071429e-01 0.000000e+00
6.153846e+00 1.071429e-01 0.000000e+00
6.256410e+00 1.071429e-01 0.000000e+00
6.358974e+00 1.071429e-01 0.000000e+00
6.461538e+00 1.071429e-01 0.000000e+00
6.564103e+00 1.071429e-01 0.000000e+00
6.666667e+00 1.071429e-01 0.000000e+00
6.769231e+00 1.071429e-01 0.000000e+00
6.871795e+00 1.071429e-01 0.000000e+00
6.974359e+00 1.071429e-01 0.000000e+00
7.076923e+00 1.071429e-01 0.000000e+00
7.179487e+00 1.071429e-01 0.000000e+00
7.282051e+00 1.071429e-01 0.000000e+00
7.384615e+00 1.071429e-01 0.000000e+00
7.487179e+00 1.071429e-01 0.000000e+00
7.589744e+00 1.071429e-01 0.000000e+00
7.692308e+00 1.071429e-01 0.000000e+00
7.794872e+00 1.071429e-01 0.000000e+00
7.897436e+00 1.071429e-01 0.000000e+00
8.000000e+00 1.071429e-01 0.000000e+00
0.000000e+00 2.142857e-01 0.000000e+00
1.025641e-01 2.142857e-01 0.000000e+00
2.051282e-01 2.142857e-01 0.000000e+00
3.076923e-01 2.142857e-01 0.000000e+00
4.102564e-01 2.142857e-01 0.000000e+00
5.128205e-01 2.142857e-01 0.000000e+00
6.153846e-01 2.142857e-01 0.000000e+00
7.179487e-01 2.142857e-01 0.000000e+00
8.205128e-01 2.142857e-01 0.000000e+00
9.230769e-01 2.142857e-01 0.000000e+00
1.025641e+00 2.142857e-01 0.000000e+00
1.128205e+00 2.142857e-01 0.000000e+00
1.230769e+00 2.142857e-01 0.000000e+00
1.333333e+00 2.142857e-01 0.000000e+00
1.435897e+00 2.142857e-01 0.000000e+00
1.538462e+00 2.142857e-01 0.000000e+00
1.641026e+00 2.142857e-01 0.000000e+00
1.743590e+00 2.142857e-01 0.000000e+00
1.846154e+00 2.142857e-01 0.000000e+00
1.948718e+00 2.142857e-01 0.000000e+00
2.051282e+00 2.142857e-01 0.000000e+00
2.153846e+00 2.142857e-01 0.000000e+00
2.256410e+00 2.142857e-01 0.000000e+00
2.358974e+00 2.142857e-01 0.000000e+00
2.461538e+00 2.142857e-01 0.000000e+00
2.564103e+00 2.142857e-01 0.000000e+00
2.666667e+00 2.142857e-01 0.000000e+00
2.769231e+00 2.142857e-01 0.000000e+00
2.871795e+00 2.142857e-01 0.000000e+00
2.974359e+00 2.142857e-01 0.000000e+00
3.076923e+00 2.142857e-01 0.000000e+00
3.179487e+00 2.142857e-01 0.000000e+00
3.282051e+00 2.142857e-01 0.000000e+00
3.384615e+00 2.142857e-01 0.000000e+00
3.487179e+00 2.142857e-01 0.000000e+00
3.589744e+00 2.142857e-01 0.000000e+00
3.692308e+00 2.142857e-01 0.000000e+00
3.794872e+00 2.142857e-01 0.000000e+00
3.897436e+00 2.142857e-01 0.000000e+00
4.000000e+00 2.142857e-01 0.000000e+00
4.102564e+00 2.142857e-01 0.000000e+00
4.205128e+00 2.142857e-01 0.000000e+00
4.307692e+00 2.142857e-01 0.000000e+00
4.410256e+00 2.142857e-01 0.000000e+00
4.512821e+00 2.142857e-01 0.000000e+00
4.615385e+00 2.142857e-01 0.000000e+00
4.717949e+00 2.142857e-01 0.000000e+00
4.820513e+00 2.142857e-01 0.000000e+00
4.923077e+00 2.142857e-01 0.000000e+00
5.025641e+00 2.142857e-01 0.000000e+00
5.128205e+00 2.142857e-01 0.000000e+00
5.230769e+00 2.142857e-01 0.000000e+00
5.333333e+00 2.142857e-01 0.000000e+00
5.435897e+00 2.142857e-01 0.000000e+00
5.538462e+00 2.142857e-01 0.000000e+00
5.641026e+00 2.142857e-01 0.000000e+00
5.743590e+00 2.142857e-01 0.000000e+00
5.846154e+00 2.142857e-01 0.000000e+00
5.948718e+00 2.142857e-01 0.000000e+00
6.051282e+00 2.142857e-01 0.000000e+00
6.153846e+00 2.142857e-01 0.000000e+00
6.256410e+00 2.142857e-01 0.000000e+00
6.358974e+00 2.142857e-01 0.000000e+00
6.461538e+00 2.142857e-01 0.000000e+00
6.564103e+00 2.142857e-01 0.000000e+00
6.666667e+00 2.142857e-01 0.000000e+00
6.769231e+00 2.142857e-01 0.000000e+00
6.871795e+00 2.142857e-01 0.000000e+00
6.974359e+00 2.142857e-01 0.000000e+00
7.076923e+00 2.142857e-01 0.000000e+00
7.179487e+00 2.142857e-01 0.000000e+00
7.282051e+00 2.142857e-01 0.000000e+00
7.384615e+00 2.142857e-01 0.000000e+00
7.487179e+00 2.142857e-01 0.000000e+00
7.589744e+00 2.142857e-01 0.000000e+00
7.692308e+00 2.142857e-01 0.000000e+00
7.794872e+00 2.142857e-01 0.000000e+00
7.897436e+00 2.142857e-01 0.000000e+00
8.000000e+00 2.142857e-01 0.000000e+00
0.000000e+00 3.214286e-01 0.000000e+00
1.025641e-01 3.214286e-01 0.000000e+00
2.051282e-01 3.214286e-01 0.000000e+00
3.076923e-01 3.214286e-01 0.000000e+00
4.102564e-01 3.214286e-01 0.000000e+00
5.128205e-01 3.214286e-01 0.000000e+00
6.153846e-01 3.214286e-01 0.000000e+00
7.179487e-01 3.214286e-01 0.000000e+00
8.205128e-01 3.214286e-01 0.000000e+00
9.230769e-01 3.214286e-01 0.000000e+00
1.025641e+00 3.214286e-01 0.000000e+00
1.128205e+00 3.214286e-01 0.000000e+00
1.230769e+00 3.214286e-01 0.000000e+00
1.333333e+00 3.214286e-01 0.000000e+00
[...]
<PointData>
<DataArray Name="Velocity" type="Float64" format="ascii" NumberOfComponents="3">
0.000000e+00 0.000000e+00 0
0.000000e+00 0.000000e+00 0
0.000000e+00 0.000000e+00 0
0.000000e+00 0.000000e+00 0
0.000000e+00 0.000000e+00 0
0.000000e+00 0.000000e+00 0
0.000000e+00 0.000000e+00 0
0.000000e+00 0.000000e+00 0
0.000000e+00 0.000000e+00 0
0.000000e+00 0.000000e+00 0
0.000000e+00 0.000000e+00 0
0.000000e+00 0.000000e+00 0
0.000000e+00 0.000000e+00 0
0.000000e+00 0.000000e+00 0
0.000000e+00 0.000000e+00 0
0.000000e+00 0.000000e+00 0
0.000000e+00 0.000000e+00 0
0.000000e+00 0.000000e+00 0
0.000000e+00 0.000000e+00 0
0.000000e+00 0.000000e+00 0
0.000000e+00 0.000000e+00 0
0.000000e+00 0.000000e+00 0
0.000000e+00 0.000000e+00 0
0.000000e+00 0.000000e+00 0
0.000000e+00 0.000000e+00 0
0.000000e+00 0.000000e+00 0
0.000000e+00 0.000000e+00 0
0.000000e+00 0.000000e+00 0
0.000000e+00 0.000000e+00 0
0.000000e+00 0.000000e+00 0
0.000000e+00 0.000000e+00 0
0.000000e+00 0.000000e+00 0
0.000000e+00 0.000000e+00 0
0.000000e+00 0.000000e+00 0
0.000000e+00 0.000000e+00 0
0.000000e+00 0.000000e+00 0
0.000000e+00 0.000000e+00 0
0.000000e+00 0.000000e+00 0
0.000000e+00 0.000000e+00 0
0.000000e+00 0.000000e+00 0
0.000000e+00 0.000000e+00 0
0.000000e+00 0.000000e+00 0
0.000000e+00 0.000000e+00 0
0.000000e+00 0.000000e+00 0
0.000000e+00 0.000000e+00 0
0.000000e+00 0.000000e+00 0
0.000000e+00 0.000000e+00 0
0.000000e+00 0.000000e+00 0
0.000000e+00 0.000000e+00 0
0.000000e+00 0.000000e+00 0
0.000000e+00 0.000000e+00 0
0.000000e+00 0.000000e+00 0
0.000000e+00 0.000000e+00 0
0.000000e+00 0.000000e+00 0
0.000000e+00 0.000000e+00 0
0.000000e+00 0.000000e+00 0
0.000000e+00 0.000000e+00 0
0.000000e+00 0.000000e+00 0
0.000000e+00 0.000000e+00 0
0.000000e+00 0.000000e+00 0
0.000000e+00 0.000000e+00 0
0.000000e+00 0.000000e+00 0
0.000000e+00 0.000000e+00 0
0.000000e+00 0.000000e+00 0
0.000000e+00 0.000000e+00 0
0.000000e+00 0.000000e+00 0
0.000000e+00 0.000000e+00 0
0.000000e+00 0.000000e+00 0
0.000000e+00 0.000000e+00 0
0.000000e+00 0.000000e+00 0
0.000000e+00 0.000000e+00 0
0.000000e+00 0.000000e+00 0
0.000000e+00 0.000000e+00 0
0.000000e+00 0.000000e+00 0
0.000000e+00 0.000000e+00 0
0.000000e+00 0.000000e+00 0
0.000000e+00 0.000000e+00 0
0.000000e+00 0.000000e+00 0
0.000000e+00 0.000000e+00 0
0.000000e+00 0.000000e+00 0
0.000000e+00 0.000000e+00 0
0.000000e+00 0.000000e+00 0
0.000000e+00 0.000000e+00 0
0.000000e+00 0.000000e+00 0
0.000000e+00 0.000000e+00 0
0.000000e+00 0.000000e+00 0
0.000000e+00 0.000000e+00 0
0.000000e+00 0.000000e+00 0
0.000000e+00 0.000000e+00 0
0.000000e+00 0.000000e+00 0
0.000000e+00 0.000000e+00 0
0.000000e+00 0.000000e+00 0
0.000000e+00 0.000000e+00 0
0.000000e+00 0.000000e+00 0
0.000000e+00 0.000000e+00 0
0.000000e+00 0.000000e+00 0
0.000000e+00 0.000000e+00 0
0.000000e+00 0.000000e+00 0
0.000000e+00 0.000000e+00 0
0.000000e+00 0.000000e+00 0
0.000000e+00 0.000000e+00 0
0.000000e+00 0.000000e+00 0
0.000000e+00 0.000000e+00 0
0.000000e+00 0.000000e+00 0
0.000000e+00 0.000000e+00 0
0.000000e+00 0.000000e+00 0
0.000000e+00 0.000000e+00 0
0.000000e+00 0.000000e+00 0
0.000000e+00 0.000000e+00 0
0.000000e+00 0.000000e+00 0
0.000000e+00 0.000000e+00 0
0.000000e+00 0.000000e+00 0
0.000000e+00 0.000000e+00 0
0.000000e+00 0.000000e+00 0
0.000000e+00 0.000000e+00 0
0.000000e+00 0.000000e+00 0
0.000000e+00 0.000000e+00 0
0.000000e+00 0.000000e+00 0
0.000000e+00 0.000000e+00 0
0.000000e+00 0.000000e+00 0
0.000000e+00 0.000000e+00 0
0.000000e+00 0.000000e+00 0
0.000000e+00 0.000000e+00 0
0.000000e+00 0.000000e+00 0
0.000000e+00 0.000000e+00 0
0.000000e+00 0.000000e+00 0
0.000000e+00 0.000000e+00 0
0.000000e+00 0.000000e+00 0
0.000000e+00 0.000000e+00 0
0.000000e+00 0.000000e+00 0
0.000000e+00 0.000000e+00 0
0.000000e+00 0.000000e+00 0
0.000000e+00 0.000000e+00 0
0.000000e+00 0.000000e+00 0
0.000000e+00 0.000000e+00 0
0.000000e+00 0.000000e+00 0
0.000000e+00 0.000000e+00 0
0.000000e+00 0.000000e+00 0
0.000000e+00 0.000000e+00 0
0.000000e+00 0.000000e+00 0
0.000000e+00 0.000000e+00 0
0.000000e+00 0.000000e+00 0
0.000000e+00 0.000000e+00 0
0.000000e+00 0.000000e+00 0
0.000000e+00 0.000000e+00 0
0.000000e+00 0.000000e+00 0
0.000000e+00 0.000000e+00 0
0.000000e+00 0.000000e+00 0
0.000000e+00 0.000000e+00 0
0.000000e+00 0.000000e+00 0
0.000000e+00 0.000000e+00 0
0.000000e+00 0.000000e+00 0
0.000000e+00 0.000000e+00 0
0.000000e+00 0.000000e+00 0
0.000000e+00 0.000000e+00 0
0.000000e+00 0.000000e+00 0
0.000000e+00 0.000000e+00 0
0.000000e+00 0.000000e+00 0
0.000000e+00 0.000000e+00 0
0.000000e+00 0.000000e+00 0
0.000000e+00 0.000000e+00 0
0.000000e+00 0.000000e+00 0
0.000000e+00 0.000000e+00 0
0.000000e+00 0.000000e+00 0
0.000000e+00 0.000000e+00 0
0.000000e+00 0.000000e+00 0
0.000000e+00 0.000000e+00 0
0.000000e+00 0.000000e+00 0
0.000000e+00 0.000000e+00 0
0.000000e+00 0.000000e+00 0
0.000000e+00 0.000000e+00 0
0.000000e+00 0.000000e+00 0
0.000000e+00 0.000000e+00 0
0.000000e+00 0.000000e+00 0
0.000000e+00 0.000000e+00 0
0.000000e+00 0.000000e+00 0
0.000000e+00 0.000000e+00 0
0.000000e+00 0.000000e+00 0
0.000000e+00 0.000000e+00 0
0.000000e+00 0.000000e+00 0
0.000000e+00 0.000000e+00 0
0.000000e+00 0.000000e+00 0
0.000000e+00 0.000000e+00 0
0.000000e+00 0.000000e+00 0
0.000000e+00 0.000000e+00 0
0.000000e+00 0.000000e+00 0
0.000000e+00 0.000000e+00 0
0.000000e+00 0.000000e+00 0
0.000000e+00 0.000000e+00 0
0.000000e+00 0.000000e+00 0
0.000000e+00 0.000000e+00 0
0.000000e+00 0.000000e+00 0
0.000000e+00 0.000000e+00 0
0.000000e+00 0.000000e+00 0
0.000000e+00 0.000000e+00 0
0.000000e+00 0.000000e+00 0
0.000000e+00 0.000000e+00 0
0.000000e+00 0.000000e+00 0
0.000000e+00 0.000000e+00 0
0.000000e+00 0.000000e+00 0
0.000000e+00 0.000000e+00 0
0.000000e+00 0.000000e+00 0
0.000000e+00 0.000000e+00 0
0.000000e+00 0.000000e+00 0
0.000000e+00 0.000000e+00 0
0.000000e+00 0.000000e+00 0
0.000000e+00 0.000000e+00 0
0.000000e+00 0.000000e+00 0
0.000000e+00 0.000000e+00 0
0.000000e+00 0.000000e+00 0
0.000000e+00 0.000000e+00 0
0.000000e+00 0.000000e+00 0
0.000000e+00 0.000000e+00 0
0.000000e+00 0.000000e+00 0
0.000000e+00 0.000000e+00 0
0.000000e+00 0.000000e+00 0
0.000000e+00 0.000000e+00 0
0.000000e+00 0.000000e+00 0
0.000000e+00 0.000000e+00 0
0.000000e+00 0.000000e+00 0
0.000000e+00 0.000000e+00 0
0.000000e+00 0.000000e+00 0
0.000000e+00 0.000000e+00 0
0.000000e+00 0.000000e+00 0
0.000000e+00 0.000000e+00 0
0.000000e+00 0.000000e+00 0
0.000000e+00 0.000000e+00 0
0.000000e+00 0.000000e+00 0
0.000000e+00 0.000000e+00 0
0.000000e+00 0.000000e+00 0
0.000000e+00 0.000000e+00 0
0.000000e+00 0.000000e+00 0
0.000000e+00 0.000000e+00 0
0.000000e+00 0.000000e+00 0
0.000000e+00 0.000000e+00 0
0.000000e+00 0.000000e+00 0
0.000000e+00 0.000000e+00 0
0.000000e+00 0.000000e+00 0
0.000000e+00 0.000000e+00 0
0.000000e+00 0.000000e+00 0
0.000000e+00 0.000000e+00 0
0.000000e+00 0.000000e+00 0
0.000000e+00 0.000000e+00 0
0.000000e+00 0.000000e+00 0
0.000000e+00 0.000000e+00 0
0.000000e+00 0.000000e+00 0
0.000000e+00 0.000000e+00 0
0.000000e+00 0.000000e+00 0
0.000000e+00 0.000000e+00 0
0.000000e+00 0.000000e+00 0
0.000000e+00 0.000000e+00 0
0.000000e+00 2.882335e-01 0
1.185004e-01 2.882335e-01 0
9.176239e-01 0.000000e+00 0
0.000000e+00 0.000000e+00 0
0.000000e+00 0.000000e+00 0
0.000000e+00 0.000000e+00 0
0.000000e+00 0.000000e+00 0
0.000000e+00 0.000000e+00 0
0.000000e+00 0.000000e+00 0
0.000000e+00 0.000000e+00 0
0.000000e+00 0.000000e+00 0
0.000000e+00 0.000000e+00 0
0.000000e+00 0.000000e+00 0
0.000000e+00 0.000000e+00 0
0.000000e+00 0.000000e+00 0
0.000000e+00 0.000000e+00 0
0.000000e+00 0.000000e+00 0
0.000000e+00 0.000000e+00 0
0.000000e+00 0.000000e+00 0
0.000000e+00 0.000000e+00 0
0.000000e+00 0.000000e+00 0
0.000000e+00 0.000000e+00 0
0.000000e+00 0.000000e+00 0
0.000000e+00 0.000000e+00 0
0.000000e+00 0.000000e+00 0
0.000000e+00 0.000000e+00 0
0.000000e+00 0.000000e+00 0
0.000000e+00 0.000000e+00 0
0.000000e+00 0.000000e+00 0
0.000000e+00 0.000000e+00 0
0.000000e+00 0.000000e+00 0
0.000000e+00 0.000000e+00 0
0.000000e+00 0.000000e+00 0
0.000000e+00 0.000000e+00 0
0.000000e+00 0.000000e+00 0
0.000000e+00 0.000000e+00 0
0.000000e+00 0.000000e+00 0
0.000000e+00 0.000000e+00 0
0.000000e+00 0.000000e+00 0
0.000000e+00 0.000000e+00 0
0.000000e+00 0.000000e+00 0
0.000000e+00 0.000000e+00 0
0.000000e+00 0.000000e+00 0
0.000000e+00 0.000000e+00 0
0.000000e+00 0.000000e+00 0
0.000000e+00 0.000000e+00 0
0.000000e+00 0.000000e+00 0
0.000000e+00 0.000000e+00 0
0.000000e+00 0.000000e+00 0
0.000000e+00 0.000000e+00 0
0.000000e+00 0.000000e+00 0
0.000000e+00 0.000000e+00 0
0.000000e+00 0.000000e+00 0
0.000000e+00 0.000000e+00 0
0.000000e+00 0.000000e+00 0
0.000000e+00 0.000000e+00 0
0.000000e+00 0.000000e+00 0
0.000000e+00 0.000000e+00 0
0.000000e+00 0.000000e+00 0
0.000000e+00 0.000000e+00 0
0.000000e+00 0.000000e+00 0
0.000000e+00 0.000000e+00 0
0.000000e+00 0.000000e+00 0
0.000000e+00 0.000000e+00 0
0.000000e+00 0.000000e+00 0
1.000000e+00 0.000000e+00 0
1.000000e+00 0.000000e+00 0
1.000000e+00 0.000000e+00 0
1.000000e+00 0.000000e+00 0
1.000000e+00 0.000000e+00 0
1.000000e+00 0.000000e+00 0
1.000000e+00 0.000000e+00 0
1.000000e+00 0.000000e+00 0
1.000000e+00 0.000000e+00 0
1.000000e+00 0.000000e+00 0
1.000000e+00 0.000000e+00 0
1.054675e+00 -5.718674e-02 0
1.073302e+00 -7.388961e-02 0
1.107885e+00 -1.941038e-01 0
1.039738e+00 -1.295814e-02 0
1.364544e+00 7.278933e-02 0
1.835248e+00 -9.165349e-02 0
6.970316e-01 0.000000e+00 0
7.663105e-01 0.000000e+00 0
8.266799e-01 0.000000e+00 0
8.266799e-01 0.000000e+00 0
8.266799e-01 0.000000e+00 0
8.266799e-01 0.000000e+00 0
1.134650e+00 0.000000e+00 0
0.000000e+00 0.000000e+00 0
9.299535e-01 0.000000e+00 0
9.299535e-01 0.000000e+00 0
9.299535e-01 0.000000e+00 0
9.299535e-01 0.000000e+00 0
0.000000e+00 0.000000e+00 0
0.000000e+00 0.000000e+00 0
0.000000e+00 0.000000e+00 0
0.000000e+00 0.000000e+00 0
0.000000e+00 0.000000e+00 0
0.000000e+00 0.000000e+00 0
0.000000e+00 0.000000e+00 0
0.000000e+00 0.000000e+00 0
0.000000e+00 0.000000e+00 0
0.000000e+00 0.000000e+00 0
0.000000e+00 0.000000e+00 0
0.000000e+00 0.000000e+00 0
0.000000e+00 0.000000e+00 0
0.000000e+00 0.000000e+00 0
0.000000e+00 0.000000e+00 0
0.000000e+00 0.000000e+00 0
0.000000e+00 0.000000e+00 0
0.000000e+00 0.000000e+00 0
0.000000e+00 0.000000e+00 0
0.000000e+00 0.000000e+00 0
0.000000e+00 0.000000e+00 0
0.000000e+00 0.000000e+00 0
0.000000e+00 0.000000e+00 0
0.000000e+00 0.000000e+00 0
0.000000e+00 0.000000e+00 0
0.000000e+00 0.000000e+00 0
0.000000e+00 0.000000e+00 0
0.000000e+00 0.000000e+00 0
0.000000e+00 0.000000e+00 0
0.000000e+00 0.000000e+00 0
0.000000e+00 0.000000e+00 0
0.000000e+00 0.000000e+00 0
0.000000e+00 0.000000e+00 0
0.000000e+00 0.000000e+00 0
0.000000e+00 0.000000e+00 0
0.000000e+00 0.000000e+00 0
0.000000e+00 0.000000e+00 0
0.000000e+00 0.000000e+00 0
0.000000e+00 0.000000e+00 0
0.000000e+00 0.000000e+00 0
0.000000e+00 0.000000e+00 0
0.000000e+00 0.000000e+00 0
0.000000e+00 0.000000e+00 0
0.000000e+00 0.000000e+00 0
0.000000e+00 0.000000e+00 0
0.000000e+00 0.000000e+00 0
0.000000e+00 0.000000e+00 0
0.000000e+00 0.000000e+00 0
0.000000e+00 0.000000e+00 0
0.000000e+00 0.000000e+00 0
2.000000e+00 0.000000e+00 0
1.979994e+00 0.000000e+00 0
2.061031e+00 0.000000e+00 0
2.179327e+00 0.000000e+00 0
2.277780e+00 0.000000e+00 0
2.330681e+00 0.000000e+00 0
2.341776e+00 0.000000e+00 0
2.327310e+00 0.000000e+00 0
2.310047e+00 0.000000e+00 0
2.302686e+00 0.000000e+00 0
2.671791e+00 -1.200725e-01 0
2.724217e+00 -2.132541e-01 0
2.653644e+00 -1.933386e-01 0
2.592351e+00 -2.239217e-01 0
2.405728e+00 -2.681314e-01 0
2.473837e+00 1.070611e-01 0
2.286516e+00 3.391203e-01 0
2.148832e+00 8.878742e-02 0
2.218976e+00 3.752606e-02 0
2.268546e+00 1.210072e-02 0
2.277760e+00 -2.433045e-02 0
2.045982e+00 0.000000e+00 0
2.026981e+00 0.000000e+00 0
2.269299e+00 0.000000e+00 0
1.130389e+00 0.000000e+00 0
2.064603e+00 0.000000e+00 0
2.064603e+00 0.000000e+00 0
2.064603e+00 0.000000e+00 0
2.064603e+00 0.000000e+00 0
1.134650e+00 0.000000e+00 0
4.912885e-15 0.000000e+00 0
0.000000e+00 0.000000e+00 0
0.000000e+00 0.000000e+00 0
0.000000e+00 0.000000e+00 0
0.000000e+00 0.000000e+00 0
0.000000e+00 0.000000e+00 0
0.000000e+00 0.000000e+00 0
0.000000e+00 0.000000e+00 0
0.000000e+00 0.000000e+00 0
0.000000e+00 0.000000e+00 0
0.000000e+00 0.000000e+00 0
0.000000e+00 0.000000e+00 0
0.000000e+00 0.000000e+00 0
0.000000e+00 0.000000e+00 0
0.000000e+00 0.000000e+00 0
0.000000e+00 0.000000e+00 0
0.000000e+00 0.000000e+00 0
0.000000e+00 0.000000e+00 0
0.000000e+00 0.000000e+00 0
0.000000e+00 0.000000e+00 0
0.000000e+00 0.000000e+00 0
0.000000e+00 0.000000e+00 0
0.000000e+00 0.000000e+00 0
0.000000e+00 0.000000e+00 0
0.000000e+00 0.000000e+00 0
0.000000e+00 0.000000e+00 0
0.000000e+00 0.000000e+00 0
0.000000e+00 0.000000e+00 0
0.000000e+00 0.000000e+00 0
0.000000e+00 0.000000e+00 0
0.000000e+00 0.000000e+00 0
0.000000e+00 0.000000e+00 0
0.000000e+00 0.000000e+00 0
0.000000e+00 0.000000e+00 0
0.000000e+00 0.000000e+00 0
0.000000e+00 0.000000e+00 0
0.000000e+00 0.000000e+00 0
0.000000e+00 0.000000e+00 0
0.000000e+00 0.000000e+00 0
0.000000e+00 0.000000e+00 0
0.000000e+00 0.000000e+00 0
0.000000e+00 0.000000e+00 0
0.000000e+00 0.000000e+00 0
0.000000e+00 0.000000e+00 0
0.000000e+00 0.000000e+00 0
0.000000e+00 0.000000e+00 0
0.000000e+00 0.000000e+00 0
0.000000e+00 0.000000e+00 0
0.000000e+00 0.000000e+00 0
2.000000e+00 0.000000e+00 0
1.965453e+00 -3.873551e-01 0
2.063347e+00 -5.883813e-01 0
2.199035e+00 -6.412564e-01 0
2.264185e+00 -5.992116e-01 0
2.215080e+00 -5.375756e-01 0
2.080319e+00 -5.039191e-01 0
1.911853e+00 -5.129379e-01 0
1.758295e+00 -5.504821e-01 0
1.671592e+00 -9.263857e-01 0
1.671791e+00 -6.402644e-01 0
3.472916e-15 0.000000e+00 0
3.472916e-15 0.000000e+00 0
3.157197e-15 0.000000e+00 0
2.841477e-15 0.000000e+00 0
2.525757e-15 0.000000e+00 0
2.841477e-15 0.000000e+00 0
3.157197e-15 0.000000e+00 0
2.805826e-15 0.000000e+00 0
2.841477e-15 0.000000e+00 0
3.157197e-15 2.421248e-01 0
1.219302e+00 2.619745e-01 0
1.200301e+00 8.843184e-02 0
1.134650e+00 7.303281e-02 0
1.130389e+00 -3.884832e-17 0
1.134650e+00 -4.450671e-03 0
1.134650e+00 0.000000e+00 0
1.134650e+00 0.000000e+00 0
1.134650e+00 0.000000e+00 0
1.134650e+00 7.979422e-01 0
4.912885e-15 0.000000e+00 0
0.000000e+00 -7.979422e-01 0
0.000000e+00 0.000000e+00 0
0.000000e+00 0.000000e+00 0
0.000000e+00 0.000000e+00 0
0.000000e+00 0.000000e+00 0
0.000000e+00 0.000000e+00 0
0.000000e+00 0.000000e+00 0
0.000000e+00 0.000000e+00 0
0.000000e+00 0.000000e+00 0
0.000000e+00 0.000000e+00 0
0.000000e+00 0.000000e+00 0
0.000000e+00 0.000000e+00 0
0.000000e+00 0.000000e+00 0
0.000000e+00 0.000000e+00 0
0.000000e+00 0.000000e+00 0
0.000000e+00 0.000000e+00 0
0.000000e+00 0.000000e+00 0
0.000000e+00 0.000000e+00 0
0.000000e+00 0.000000e+00 0
0.000000e+00 0.000000e+00 0
0.000000e+00 0.000000e+00 0
0.000000e+00 0.000000e+00 0
0.000000e+00 0.000000e+00 0
0.000000e+00 0.000000e+00 0
0.000000e+00 0.000000e+00 0
0.000000e+00 0.000000e+00 0
0.000000e+00 0.000000e+00 0
0.000000e+00 0.000000e+00 0
0.000000e+00 0.000000e+00 0
0.000000e+00 0.000000e+00 0
0.000000e+00 0.000000e+00 0
0.000000e+00 0.000000e+00 0
0.000000e+00 0.000000e+00 0
0.000000e+00 0.000000e+00 0
0.000000e+00 0.000000e+00 0
0.000000e+00 0.000000e+00 0
0.000000e+00 0.000000e+00 0
0.000000e+00 0.000000e+00 0
0.000000e+00 0.000000e+00 0
0.000000e+00 0.000000e+00 0
0.000000e+00 0.000000e+00 0
0.000000e+00 0.000000e+00 0
0.000000e+00 0.000000e+00 0
0.000000e+00 0.000000e+00 0
0.000000e+00 0.000000e+00 0
0.000000e+00 0.000000e+00 0
0.000000e+00 0.000000e+00 0
0.000000e+00 0.000000e+00 0
2.000000e+00 0.000000e+00 0
2.035854e+00 -3.897724e-01 0
2.125578e+00 -6.241578e-01 0
2.197689e+00 -6.246344e-01 0
2.156788e+00 -4.578611e-01 0
1.944499e+00 -2.786462e-01 0
1.622899e+00 -1.906762e-01 0
1.276363e+00 -2.096838e-01 0
9.425126e-01 -3.252179e-01 0
6.503134e-01 -5.865944e-01 0
0.000000e+00 -7.892992e-16 0
-1.669542e+00 3.833572e-01 0
-1.580342e+00 0.000000e+00 0
-1.484466e+00 0.000000e+00 0
-1.365990e+00 0.000000e+00 0
-1.227793e+00 0.000000e+00 0
-1.368892e+00 0.000000e+00 0
-1.451800e+00 0.000000e+00 0
-1.452666e+00 0.000000e+00 0
-1.441866e+00 0.000000e+00 0
-1.451080e+00 0.000000e+00 0
0.000000e+00 0.000000e+00 0
0.000000e+00 0.000000e+00 0
0.000000e+00 0.000000e+00 0
0.000000e+00 0.000000e+00 0
0.000000e+00 0.000000e+00 0
0.000000e+00 0.000000e+00 0
0.000000e+00 0.000000e+00 0
0.000000e+00 0.000000e+00 0
0.000000e+00 7.956297e-01 0
0.000000e+00 8.244380e-16 0
0.000000e+00 -7.956297e-01 0
0.000000e+00 0.000000e+00 0
0.000000e+00 0.000000e+00 0
0.000000e+00 0.000000e+00 0
0.000000e+00 0.000000e+00 0
0.000000e+00 0.000000e+00 0
0.000000e+00 0.000000e+00 0
0.000000e+00 0.000000e+00 0
0.000000e+00 0.000000e+00 0
0.000000e+00 0.000000e+00 0
0.000000e+00 0.000000e+00 0
0.000000e+00 0.000000e+00 0
0.000000e+00 0.000000e+00 0
0.000000e+00 0.000000e+00 0
0.000000e+00 0.000000e+00 0
0.000000e+00 0.000000e+00 0
0.000000e+00 0.000000e+00 0
0.000000e+00 0.000000e+00 0
0.000000e+00 0.000000e+00 0
0.000000e+00 0.000000e+00 0
0.000000e+00 0.000000e+00 0
0.000000e+00 0.000000e+00 0
0.000000e+00 0.000000e+00 0
0.000000e+00 0.000000e+00 0
0.000000e+00 0.000000e+00 0
0.000000e+00 0.000000e+00 0
0.000000e+00 0.000000e+00 0
0.000000e+00 0.000000e+00 0
0.000000e+00 0.000000e+00 0
0.000000e+00 0.000000e+00 0
0.000000e+00 0.000000e+00 0
0.000000e+00 0.000000e+00 0
0.000000e+00 0.000000e+00 0
0.000000e+00 0.000000e+00 0
0.000000e+00 0.000000e+00 0
0.000000e+00 0.000000e+00 0
0.000000e+00 0.000000e+00 0
0.000000e+00 0.000000e+00 0
0.000000e+00 0.000000e+00 0
0.000000e+00 0.000000e+00 0
0.000000e+00 0.000000e+00 0
0.000000e+00 0.000000e+00 0
0.000000e+00 0.000000e+00 0
0.000000e+00 0.000000e+00 0
0.000000e+00 0.000000e+00 0
0.000000e+00 0.000000e+00 0
0.000000e+00 0.000000e+00 0
0.000000e+00 0.000000e+00 0
2.000000e+00 0.000000e+00 0
2.078145e+00 -5.185352e-01 0
2.179703e+00 -7.574383e-01 0
2.272363e+00 -6.738574e-01 0
2.302866e+00 -3.347170e-01 0
2.132845e+00 2.015013e-02 0
1.770544e+00 1.940469e-01 0
1.372646e+00 1.978246e-01 0
9.847827e-01 1.035177e-01 0
5.679949e-01 -7.026388e-02 0
0.000000e+00 -1.973248e-16 0
0.000000e+00 8.938736e-02 0
0.000000e+00 0.000000e+00 0
0.000000e+00 0.000000e+00 0
0.000000e+00 0.000000e+00 0
0.000000e+00 0.000000e+00 0
0.000000e+00 0.000000e+00 0
0.000000e+00 0.000000e+00 0
0.000000e+00 0.000000e+00 0
0.000000e+00 0.000000e+00 0
0.000000e+00 0.000000e+00 0
0.000000e+00 0.000000e+00 0
0.000000e+00 0.000000e+00 0
0.000000e+00 0.000000e+00 0
0.000000e+00 0.000000e+00 0
0.000000e+00 0.000000e+00 0
0.000000e+00 0.000000e+00 0
0.000000e+00 0.000000e+00 0
0.000000e+00 0.000000e+00 0
0.000000e+00 7.956297e-01 0
0.000000e+00 7.956297e-01 0
0.000000e+00 0.000000e+00 0
0.000000e+00 0.000000e+00 0
0.000000e+00 0.000000e+00 0
0.000000e+00 0.000000e+00 0
0.000000e+00 0.000000e+00 0
0.000000e+00 0.000000e+00 0
0.000000e+00 0.000000e+00 0
0.000000e+00 0.000000e+00 0
0.000000e+00 0.000000e+00 0
0.000000e+00 0.000000e+00 0
0.000000e+00 0.000000e+00 0
0.000000e+00 0.000000e+00 0
0.000000e+00 0.000000e+00 0
0.000000e+00 0.000000e+00 0
0.000000e+00 0.000000e+00 0
0.000000e+00 0.000000e+00 0
0.000000e+00 0.000000e+00 0
0.000000e+00 0.000000e+00 0
0.000000e+00 0.000000e+00 0
0.000000e+00 0.000000e+00 0
0.000000e+00 0.000000e+00 0
0.000000e+00 0.000000e+00 0
0.000000e+00 0.000000e+00 0
0.000000e+00 0.000000e+00 0
0.000000e+00 0.000000e+00 0
0.000000e+00 0.000000e+00 0
0.000000e+00 0.000000e+00 0
0.000000e+00 0.000000e+00 0
0.000000e+00 0.000000e+00 0
0.000000e+00 0.000000e+00 0
0.000000e+00 0.000000e+00 0
0.000000e+00 0.000000e+00 0
0.000000e+00 0.000000e+00 0
0.000000e+00 0.000000e+00 0
0.000000e+00 0.000000e+00 0
0.000000e+00 0.000000e+00 0
0.000000e+00 0.000000e+00 0
0.000000e+00 0.000000e+00 0
0.000000e+00 0.000000e+00 0
0.000000e+00 0.000000e+00 0
0.000000e+00 0.000000e+00 0
0.000000e+00 0.000000e+00 0
0.000000e+00 0.000000e+00 0
0.000000e+00 0.000000e+00 0
0.000000e+00 0.000000e+00 0
0.000000e+00 0.000000e+00 0