<?xml version="1.0"?>
<VTKFile type="StructuredGrid">
<StructuredGrid WholeExtent="0 78 0 28 0 0 ">
<Piece Extent="0 78 0 28 0 0 ">
<Points>
<DataArray type="Float64" format="ascii" NumberOfComponents="3">
0.000000e+00 0.000000e+00 0.000000e+00
1.025641e-01 0.000000e+00 0.000000e+00
2.051282e-01 0.000000e+00 0.000000e+00
3.076923e-01 0.000000e+00 0.000000e+00
4.102564e-01 0.000000e+00 0.000000e+00
5.128205e-01 0.000000e+00 0.000000e+00
6.153846e-01 0.000000e+00 0.000000e+00
7.179487e-01 0.000000e+00 0.000000e+00
8.205128e-01 0.000000e+00 0.000000e+00
9.230769e-01 0.000000e+00 0.000000e+00
1.025641e+00 0.000000e+00 0.000000e+00
1.128205e+00 0.000000e+00 0.000000e+00
1.230769e+00 0.000000e+00 0.000000e+00
1.333333e+00 0.000000e+00 0.000000e+00
1.435897e+00 0.000000e+00 0.000000e+00
1.538462e+00 0.000000e+00 0.000000e+00
1.641026e+00 0.000000e+00 0.000000e+00
1.743590e+00 0.000000e+00 0.000000e+00
1.846154e+00 0.000000e+00 0.000000e+00
1.948718e+00 0.000000e+00 0.000000e+00
2.051282e+00 0.000000e+00 0.000000e+00
2.153846e+00 0.000000e+00 0.000000e+00
2.256410e+00 0.000000e+00 0.000000e+00
2.358974e+00 0.000000e+00 0.000000e+00
2.461538e+00 0.000000e+00 0.000000e+00
2.564103e+00 0.000000e+00 0.000000e+00
2.666667e+00 0.000000e+00 0.000000e+00
2.769231e+00 0.000000e+00 0.000000e+00
2.871795e+00 0.000000e+00 0.000000e+00
2.974359e+00 0.000000e+00 0.000000e+00
3.076923e+00 0.000000e+00 0.000000e+00
3.179487e+00 0.000000e+00 0.000000e+00
3.282051e+00 0.000000e+00 0.000000e+00
3.384615e+00 0.000000e+00 0.000000e+00
3.487179e+00 0.000000e+00 0.000000e+00
3.589744e+00 0.000000e+00 0.000000e+00
3.692308e+00 0.000000e+00 0.000000e+00
3.794872e+00 0.000000e+00 0.000000e+00
3.897436e+00 0.000000e+00 0.000000e+00
4.000000e+00 0.000000e+00 0.000000e+00
4.102564e+00 0.000000e+00 0.000000e+00
4.205128e+00 0.000000e+00 0.000000e+00
4.307692e+00 0.000000e+00 0.000000e+00
4.410256e+00 0.000000e+00 0.000000e+00
4.512821e+00 0.000000e+00 0.000000e+00
4.615385e+00 0.000000e+00 0.000000e+00
4.717949e+00 0.000000e+00 0.000000e+00
4.820513e+00 0.000000e+00 0.000000e+00
4.923077e+00 0.000000e+00 0.000000e+00
5.025641e+00 0.000000e+00 0.000000e+00
5.128205e+00 0.000000e+00 0.000000e+00
5.230769e+00 0.000000e+00 0.000000e+00
5.333333e+00 0.000000e+00 0.000000e+00
5.435897e+00 0.000000e+00 0.000000e+00
5.538462e+00 0.000000e+00 0.000000e+00
5.641026e+00 0.000000e+00 0.000000e+00
5.743590e+00 0.000000e+00 0.000000e+00
5.846154e+00 0.000000e+00 0.000000e+00
5.948718e+00 0.000000e+00 0.000000e+00
6.051282e+00 0.000000e+00 0.000000e+00
6.153846e+00 0.000000e+00 0.000000e+00
6.256410e+00 0.000000e+00 0.000000e+00
6.358974e+00 0.000000e+00 0.000000e+00
6.461538e+00 0.000000e+00 0.000000e+00
6.564103e+00 0.000000e+00 0.000000e+00
6.666667e+00 0.000000e+00 0.000000e+00
6.769231e+00 0.000000e+00 0.000000e+00
6.871795e+00 0.000000e+00 0.000000e+00
6.974359e+00 0.000000e+00 0.000000e+00
7.076923e+00 0.000000e+00 0.000000e+00
7.179487e+00 0.000000e+00 0.000000e+00
7.282051e+00 0.000000e+00 0.000000e+00
7.384615e+00 0.000000e+00 0.000000e+00
7.487179e+00 0.000000e+00 0.000000e+00
7.589744e+00 0.000000e+00 0.000000e+00
7.692308e+00 0.000000e+00 0.000000e+00
7.794872e+00 0.000000e+00 0.000000e+00
7.897436e+00 0.000000e+00 0.000000e+00
8.000000e+00 0.000000e+00 0.000000e+00
0.000000e+00 1.071429e-01 0.000000e+00
1.025641e-01 1.071429e-01 0.000000e+00
2.051282e-01 1.071429e-01 0.000000e+00
3.076923e-01 1.071429e-01 0.000000e+00
4.102564e-01 1.071429e-01 0.000000e+00
5.128205e-01 1.071429e-01 0.000000e+00
6.153846e-01 1.071429e-01 0.000000e+00
7.179487e-01 1.071429e-01 0.000000e+00
8.205128e-01 1.071429e-01 0.000000e+00
9.230769e-01 1.071429e-01 0.000000e+00
1.025641e+00 1.071429e-01 0.000000e+00
1.128205e+00 1.071429e-01 0.000000e+00
1.230769e+00 1.071429e-01 0.000000e+00
1.333333e+00 1.071429e-01 0.000000e+00
1.435897e+00 1.071429e-01 0.000000e+00
1.538462e+00 1.071429e-01 0.000000e+00
1.641026e+00 1.071429e-01 0.000000e+00
1.743590e+00 1.071429e-01 0.000000e+00
1.846154e+00 1.071429e-01 0.000000e+00
1.948718e+00 1.071429e-01 0.000000e+00
2.051282e+00 1.071429e-01 0.000000e+00
2.153846e+00 1.071429e-01 0.000000e+00
2.256410e+00 1.071429e-01 0.000000e+00
2.358974e+00 1.071429e-01 0.000000e+00
2.461538e+00 1.071429e-01 0.000000e+00
2.564103e+00 1.071429e-01 0.000000e+00
2.666667e+00 1.071429e-01 0.000000e+00
2.769231e+00 1.071429e-01 0.000000e+00
2.871795e+00 1.071429e-01 0.000000e+00
2.974359e+00 1.071429e-01 0.000000e+00
3.076923e+00 1.071429e-01 0.000000e+00
3.179487e+00 1.071429e-01 0.000000e+00
3.282051e+00 1.071429e-01 0.000000e+00
3.384615e+00 1.071429e-01 0.000000e+00
3.487179e+00 1.071429e-01 0.000000e+00
3.589744e+00 1.071429e-01 0.000000e+00
3.692308e+00 1.071429e-01 0.000000e+00
3.794872e+00 1.071429e-01 0.000000e+00
3.897436e+00 1.071429e-01 0.000000e+00
4.000000e+00 1.071429e-01 0.000000e+00
4.102564e+00 1.071429e-01 0.000000e+00
4.205128e+00 1.071429e-01 0.000000e+00
4.307692e+00 1.071429e-01 0.000000e+00
4.410256e+00 1.071429e-01 0.000000e+00
4.512821e+00 1.071429e-01 0.000000e+00
4.615385e+00 1.071429e-01 0.000000e+00
4.717949e+00 1.071429e-01 0.000000e+00
4.820513e+00 1.071429e-01 0.000000e+00
4.923077e+00 1.071429e-01 0.000000e+00
5.025641e+00 1.071429e-01 0.000000e+00
5.128205e+00 1.071429e-01 0.000000e+00
5.230769e+00 1.071429e-01 0.000000e+00
5.333333e+00 1.071429e-01 0.000000e+00
5.435897e+00 1.071429e-01 0.000000e+00
5.538462e+00 1.071429e-01 0.000000e+00
5.641026e+00 1.071429e-01 0.000000e+00
5.743590e+00 1.071429e-01 0.000000e+00
5.846154e+00 1.071429e-01 0.000000e+00
5.948718e+00 1.071429e-01 0.000000e+00
6.051282e+00 1.071429e-01 0.000000e+00
6.153846e+00 1.071429e-01 0.000000e+00
6.256410e+00 1.071429e-01 0.000000e+00
6.358974e+00 1.071429e-01 0.000000e+00
6.461538e+00 1.071429e-01 0.000000e+00
6.564103e+00 1.071429e-01 0.000000e+00
6.666667e+00 1.071429e-01 0.000000e+00
6.769231e+00 1.071429e-01 0.000000e+00
6.871795e+00 1.071429e-01 0.000000e+00
6.974359e+00 1.071429e-01 0.000000e+00
7.076923e+00 1.071429e-01 0.000000e+00
7.179487e+00 1.071429e-01 0.000000e+00
7.282051e+00 1.071429e-01 0.000000e+00
7.384615e+00 1.071429e-01 0.000000e+00
7.487179e+00 1.071429e-01 0.000000e+00
7.589744e+00 1.071429e-01 0.000000e+00
7.692308e+00 1.071429e-01 0.000000e+00
7.794872e+00 1.071429e-01 0.000000e+00
7.897436e+00 1.071429e-01 0.000000e+00
8.000000e+00 1.071429e-01 0.000000e+00
0.000000e+00 2.142857e-01 0.000000e+00
1.025641e-01 2.142857e-01 0.000000e+00
2.051282e-01 2.142857e-01 0.000000e+00
3.076923e-01 2.142857e-01 0.000000e+00
4.102564e-01 2.142857e-01 0.000000e+00
5.128205e-01 2.142857e-01 0.000000e+00
6.153846e-01 2.142857e-01 0.000000e+00
7.179487e-01 2.142857e-01 0.000000e+00
8.205128e-01 2.142857e-01 0.000000e+00
9.230769e-01 2.142857e-01 0.000000e+00
1.025641e+00 2.142857e-01 0.000000e+00
1.128205e+00 2.142857e-01 0.000000e+00
1.230769e+00 2.142857e-01 0.000000e+00
1.333333e+00 2.142857e-01 0.000000e+00
1.435897e+00 2.142857e-01 0.000000e+00
1.538462e+00 2.142857e-01 0.000000e+00
1.641026e+00 2.142857e-01 0.000000e+00
1.743590e+00 2.142857e-01 0.000000e+00
1.846154e+00 2.142857e-01 0.000000e+00
1.948718e+00 2.142857e-01 0.000000e+00
2.051282e+00 2.142857e-01 0.000000e+00
2.153846e+00 2.142857e-01 0.000000e+00
2.256410e+00 2.142857e-01 0.000000e+00
2.358974e+00 2.142857e-01 0.000000e+00
2.461538e+00 2.142857e-01 0.000000e+00
2.564103e+00 2.142857e-01 0.000000e+00
2.666667e+00 2.142857e-01 0.000000e+00
2.769231e+00 2.142857e-01 0.000000e+00
2.871795e+00 2.142857e-01 0.000000e+00
2.974359e+00 2.142857e-01 0.000000e+00
3.076923e+00 2.142857e-01 0.000000e+00
3.179487e+00 2.142857e-01 0.000000e+00
3.282051e+00 2.142857e-01 0.000000e+00
3.384615e+00 2.142857e-01 0.000000e+00
3.487179e+00 2.142857e-01 0.000000e+00
3.589744e+00 2.142857e-01 0.000000e+00
3.692308e+00 2.142857e-01 0.000000e+00
3.794872e+00 2.142857e-01 0.000000e+00
3.897436e+00 2.142857e-01 0.000000e+00
4.000000e+00 2.142857e-01 0.000000e+00
4.102564e+00 2.142857e-01 0.000000e+00
4.205128e+00 2.142857e-01 0.000000e+00
4.307692e+00 2.142857e-01 0.000000e+00
4.410256e+00 2.142857e-01 0.000000e+00
4.512821e+00 2.142857e-01 0.000000e+00
4.615385e+00 2.142857e-01 0.000000e+00
4.717949e+00 2.142857e-01 0.000000e+00
4.820513e+00 2.142857e-01 0.000000e+00
4.923077e+00 2.142857e-01 0.000000e+00
5.025641e+00 2.142857e-01 0.000000e+00
5.128205e+00 2.142857e-01 0.000000e+00
5.230769e+00 2.142857e-01 0.000000e+00
5.333333e+00 2.142857e-01 0.000000e+00
5.435897e+00 2.142857e-01 0.000000e+00
5.538462e+00 2.142857e-01 0.000000e+00
5.641026e+00 2.142857e-01 0.000000e+00
5.743590e+00 2.142857e-01 0.000000e+00
5.846154e+00 2.142857e-01 0.000000e+00
5.948718e+00 2.142857e-01 0.000000e+00
6.051282e+00 2.142857e-01 0.000000e+00
6.153846e+00 2.142857e-01 0.000000e+00
6.256410e+00 2.142857e-01 0.000000e+00
6.358974e+00 2.142857e-01 0.000000e+00
6.461538e+00 2.142857e-01 0.000000e+00
6.564103e+00 2.142857e-01 0.000000e+00
6.666667e+00 2.142857e-01 0.000000e+00
6.769231e+00 2.142857e-01 0.000000e+00
6.871795e+00 2.142857e-01 0.000000e+00
6.974359e+00 2.142857e-01 0.000000e+00
7.076923e+00 2.142857e-01 0.000000e+00
7.179487e+00 2.142857e-01 0.000000e+00
7.282051e+00 2.142857e-01 0.000000e+00
7.384615e+00 2.142857e-01 0.000000e+00
7.487179e+00 2.142857e-01 0.000000e+00
7.589744e+00 2.142857e-01 0.000000e+00
7.692308e+00 2.142857e-01 0.000000e+00
7.794872e+00 2.142857e-01 0.000000e+00
7.897436e+00 2.142857e-01 0.000000e+00
8.000000e+00 2.142857e-01 0.000000e+00
0.000000e+00 3.214286e-01 0.000000e+00
1.025641e-01 3.214286e-01 0.000000e+00
2.051282e-01 3.214286e-01 0.000000e+00
3.076923e-01 3.214286e-01 0.000000e+00
4.102564e-01 3.214286e-01 0.000000e+00
5.128205e-01 3.214286e-01 0.000000e+00
6.153846e-01 3.214286e-01 0.000000e+00
7.179487e-01 3.214286e-01 0.000000e+00
8.205128e-01 3.214286e-01 0.000000e+00
9.230769e-01 3.214286e-01 0.000000e+00
1.025641e+00 3.214286e-01 0.000000e+00
1.128205e+00 3.214286e-01 0.000000e+00
1.230769e+00 3.214286e-01 0.000000e+00
1.333333e+00 3.214286e-01 0.000000e+00
[...]
<PointData>
<DataArray Name="Velocity" type="Float64" format="ascii" NumberOfComponents="3">
0.000000e+00 0.000000e+00 0
0.000000e+00 0.000000e+00 0
0.000000e+00 0.000000e+00 0
0.000000e+00 0.000000e+00 0
0.000000e+00 0.000000e+00 0
0.000000e+00 0.000000e+00 0
0.000000e+00 0.000000e+00 0
0.000000e+00 0.000000e+00 0
0.000000e+00 0.000000e+00 0
0.000000e+00 0.000000e+00 0
0.000000e+00 0.000000e+00 0
0.000000e+00 0.000000e+00 0
0.000000e+00 0.000000e+00 0
0.000000e+00 0.000000e+00 0
0.000000e+00 0.000000e+00 0
0.000000e+00 0.000000e+00 0
0.000000e+00 0.000000e+00 0
0.000000e+00 0.000000e+00 0
1.388140e-17 0.000000e+00 0
0.000000e+00 0.000000e+00 0
0.000000e+00 0.000000e+00 0
0.000000e+00 0.000000e+00 0
0.000000e+00 0.000000e+00 0
0.000000e+00 0.000000e+00 0
0.000000e+00 0.000000e+00 0
0.000000e+00 0.000000e+00 0
0.000000e+00 0.000000e+00 0
0.000000e+00 0.000000e+00 0
0.000000e+00 0.000000e+00 0
0.000000e+00 0.000000e+00 0
0.000000e+00 0.000000e+00 0
0.000000e+00 0.000000e+00 0
0.000000e+00 0.000000e+00 0
0.000000e+00 0.000000e+00 0
0.000000e+00 0.000000e+00 0
0.000000e+00 0.000000e+00 0
0.000000e+00 0.000000e+00 0
0.000000e+00 0.000000e+00 0
0.000000e+00 0.000000e+00 0
0.000000e+00 0.000000e+00 0
0.000000e+00 0.000000e+00 0
0.000000e+00 0.000000e+00 0
0.000000e+00 0.000000e+00 0
0.000000e+00 0.000000e+00 0
0.000000e+00 0.000000e+00 0
0.000000e+00 0.000000e+00 0
0.000000e+00 0.000000e+00 0
0.000000e+00 0.000000e+00 0
0.000000e+00 0.000000e+00 0
0.000000e+00 0.000000e+00 0
0.000000e+00 0.000000e+00 0
0.000000e+00 0.000000e+00 0
0.000000e+00 0.000000e+00 0
0.000000e+00 0.000000e+00 0
0.000000e+00 0.000000e+00 0
0.000000e+00 0.000000e+00 0
0.000000e+00 0.000000e+00 0
0.000000e+00 0.000000e+00 0
0.000000e+00 0.000000e+00 0
0.000000e+00 0.000000e+00 0
0.000000e+00 0.000000e+00 0
0.000000e+00 0.000000e+00 0
0.000000e+00 0.000000e+00 0
0.000000e+00 0.000000e+00 0
0.000000e+00 0.000000e+00 0
0.000000e+00 0.000000e+00 0
0.000000e+00 0.000000e+00 0
0.000000e+00 0.000000e+00 0
0.000000e+00 0.000000e+00 0
0.000000e+00 0.000000e+00 0
0.000000e+00 0.000000e+00 0
0.000000e+00 0.000000e+00 0
0.000000e+00 0.000000e+00 0
0.000000e+00 0.000000e+00 0
0.000000e+00 0.000000e+00 0
0.000000e+00 0.000000e+00 0
0.000000e+00 0.000000e+00 0
0.000000e+00 0.000000e+00 0
0.000000e+00 0.000000e+00 0
0.000000e+00 0.000000e+00 0
0.000000e+00 0.000000e+00 0
0.000000e+00 0.000000e+00 0
0.000000e+00 0.000000e+00 0
0.000000e+00 0.000000e+00 0
0.000000e+00 0.000000e+00 0
-8.260270e-16 0.000000e+00 0
-7.630964e-01 0.000000e+00 0
0.000000e+00 -1.006506e-01 0
9.634930e-02 -1.006506e-01 0
0.000000e+00 0.000000e+00 0
0.000000e+00 0.000000e+00 0
0.000000e+00 0.000000e+00 0
0.000000e+00 0.000000e+00 0
6.799243e-01 2.967634e-02 0
6.971469e-01 1.084399e-02 0
7.410511e-01 -4.458992e-02 0
7.630185e-01 -4.555956e-02 0
7.689922e-01 -2.097287e-02 0
7.654298e-01 1.570650e-02 0
7.615324e-01 -6.070456e-02 0
7.852357e-01 1.447155e-02 0
8.857911e-01 3.783646e-01 0
6.058603e-01 5.646642e-01 0
2.181776e-01 2.990176e-01 0
-1.025281e-01 6.795102e-02 0
-3.943243e-01 1.213874e-01 0
-6.132361e-01 4.164493e-02 0
-4.983223e-01 -1.402435e-01 0
-3.331472e-01 -3.314479e-01 0
-1.442484e-15 0.000000e+00 0
0.000000e+00 2.236604e-01 0
0.000000e+00 0.000000e+00 0
0.000000e+00 0.000000e+00 0
0.000000e+00 0.000000e+00 0
0.000000e+00 0.000000e+00 0
0.000000e+00 0.000000e+00 0
0.000000e+00 0.000000e+00 0
0.000000e+00 0.000000e+00 0
0.000000e+00 0.000000e+00 0
0.000000e+00 0.000000e+00 0
0.000000e+00 0.000000e+00 0
0.000000e+00 0.000000e+00 0
0.000000e+00 0.000000e+00 0
0.000000e+00 0.000000e+00 0
0.000000e+00 0.000000e+00 0
0.000000e+00 0.000000e+00 0
0.000000e+00 0.000000e+00 0
0.000000e+00 0.000000e+00 0
0.000000e+00 0.000000e+00 0
0.000000e+00 0.000000e+00 0
0.000000e+00 0.000000e+00 0
0.000000e+00 0.000000e+00 0
0.000000e+00 0.000000e+00 0
0.000000e+00 0.000000e+00 0
0.000000e+00 0.000000e+00 0
0.000000e+00 0.000000e+00 0
0.000000e+00 0.000000e+00 0
0.000000e+00 0.000000e+00 0
0.000000e+00 0.000000e+00 0
0.000000e+00 0.000000e+00 0
0.000000e+00 0.000000e+00 0
0.000000e+00 0.000000e+00 0
0.000000e+00 0.000000e+00 0
0.000000e+00 0.000000e+00 0
0.000000e+00 0.000000e+00 0
0.000000e+00 0.000000e+00 0
0.000000e+00 0.000000e+00 0
0.000000e+00 0.000000e+00 0
0.000000e+00 0.000000e+00 0
0.000000e+00 0.000000e+00 0
0.000000e+00 0.000000e+00 0
0.000000e+00 0.000000e+00 0
0.000000e+00 0.000000e+00 0
0.000000e+00 0.000000e+00 0
0.000000e+00 0.000000e+00 0
0.000000e+00 0.000000e+00 0
0.000000e+00 0.000000e+00 0
0.000000e+00 0.000000e+00 0
0.000000e+00 0.000000e+00 0
0.000000e+00 0.000000e+00 0
0.000000e+00 0.000000e+00 0
0.000000e+00 0.000000e+00 0
0.000000e+00 0.000000e+00 0
0.000000e+00 0.000000e+00 0
-8.260270e-16 0.000000e+00 0
-7.630964e-01 0.000000e+00 0
0.000000e+00 0.000000e+00 0
8.898023e-01 0.000000e+00 0
8.898023e-01 -1.963105e-01 0
9.608155e-01 -1.963105e-01 0
9.418447e-01 0.000000e+00 0
9.344561e-01 -1.121979e-01 0
1.219571e+00 -1.906520e-01 0
1.315295e+00 -1.243183e-01 0
1.340420e+00 -6.881232e-02 0
1.328706e+00 -2.918852e-02 0
1.298953e+00 -2.518906e-03 0
1.267699e+00 7.792797e-03 0
1.237840e+00 -2.069010e-02 0
1.091438e+00 -1.298059e-01 0
1.088568e+00 1.873832e-01 0
1.100300e+00 6.974177e-01 0
9.791350e-01 7.400129e-01 0
5.881700e-01 6.398457e-01 0
2.164755e-01 5.335074e-01 0
-3.175344e-02 1.086408e-01 0
-1.810388e-01 -2.866223e-01 0
-1.006514e-01 -5.145983e-01 0
-4.358074e-16 0.000000e+00 0
0.000000e+00 3.480199e-01 0
0.000000e+00 0.000000e+00 0
0.000000e+00 0.000000e+00 0
0.000000e+00 0.000000e+00 0
0.000000e+00 0.000000e+00 0
0.000000e+00 0.000000e+00 0
0.000000e+00 0.000000e+00 0
0.000000e+00 0.000000e+00 0
0.000000e+00 0.000000e+00 0
0.000000e+00 0.000000e+00 0
0.000000e+00 0.000000e+00 0
0.000000e+00 0.000000e+00 0
0.000000e+00 0.000000e+00 0
0.000000e+00 0.000000e+00 0
0.000000e+00 0.000000e+00 0
0.000000e+00 0.000000e+00 0
0.000000e+00 0.000000e+00 0
0.000000e+00 0.000000e+00 0
0.000000e+00 0.000000e+00 0
0.000000e+00 0.000000e+00 0
0.000000e+00 0.000000e+00 0
0.000000e+00 0.000000e+00 0
0.000000e+00 0.000000e+00 0
0.000000e+00 0.000000e+00 0
0.000000e+00 0.000000e+00 0
0.000000e+00 0.000000e+00 0
0.000000e+00 0.000000e+00 0
0.000000e+00 0.000000e+00 0
0.000000e+00 0.000000e+00 0
0.000000e+00 0.000000e+00 0
0.000000e+00 0.000000e+00 0
0.000000e+00 0.000000e+00 0
0.000000e+00 0.000000e+00 0
0.000000e+00 0.000000e+00 0
0.000000e+00 0.000000e+00 0
0.000000e+00 0.000000e+00 0
0.000000e+00 0.000000e+00 0
0.000000e+00 0.000000e+00 0
0.000000e+00 0.000000e+00 0
0.000000e+00 0.000000e+00 0
0.000000e+00 0.000000e+00 0
0.000000e+00 0.000000e+00 0
0.000000e+00 0.000000e+00 0
0.000000e+00 0.000000e+00 0
0.000000e+00 0.000000e+00 0
0.000000e+00 0.000000e+00 0
0.000000e+00 0.000000e+00 0
0.000000e+00 0.000000e+00 0
0.000000e+00 0.000000e+00 0
0.000000e+00 0.000000e+00 0
0.000000e+00 0.000000e+00 0
0.000000e+00 0.000000e+00 0
0.000000e+00 0.000000e+00 0
0.000000e+00 0.000000e+00 0
5.065250e-16 0.000000e+00 0
4.679355e-01 0.000000e+00 0
4.679355e-01 -4.167757e-01 0
1.357738e+00 -6.673253e-01 0
1.729771e+00 -5.397249e-01 0
1.967905e+00 -4.927446e-01 0
2.023013e+00 -3.723914e-01 0
2.018306e+00 -3.154516e-01 0
1.965482e+00 -2.343693e-01 0
1.953560e+00 -1.328180e-01 0
1.937248e+00 -5.859881e-02 0
1.920633e+00 -2.241694e-03 0
1.904325e+00 4.275703e-02 0
1.884888e+00 7.954763e-02 0
1.850562e+00 1.234250e-01 0
1.730378e+00 1.704079e-01 0
1.440363e+00 3.691071e-01 0
1.397023e+00 6.789825e-01 0
1.352740e+00 8.340110e-01 0
1.194995e+00 8.646579e-01 0
9.885337e-01 7.689859e-01 0
7.299606e-01 3.334114e-01 0
1.893141e-01 -6.796896e-02 0
2.203172e-01 -4.026197e-01 0
9.539447e-16 0.000000e+00 0
0.000000e+00 3.346508e-01 0
0.000000e+00 0.000000e+00 0
0.000000e+00 0.000000e+00 0
0.000000e+00 0.000000e+00 0
0.000000e+00 0.000000e+00 0
0.000000e+00 0.000000e+00 0
0.000000e+00 0.000000e+00 0
0.000000e+00 0.000000e+00 0
0.000000e+00 0.000000e+00 0
0.000000e+00 0.000000e+00 0
0.000000e+00 0.000000e+00 0
0.000000e+00 0.000000e+00 0
0.000000e+00 0.000000e+00 0
0.000000e+00 0.000000e+00 0
0.000000e+00 0.000000e+00 0
0.000000e+00 0.000000e+00 0
0.000000e+00 0.000000e+00 0
0.000000e+00 0.000000e+00 0
0.000000e+00 0.000000e+00 0
0.000000e+00 0.000000e+00 0
0.000000e+00 0.000000e+00 0
0.000000e+00 0.000000e+00 0
0.000000e+00 0.000000e+00 0
0.000000e+00 0.000000e+00 0
0.000000e+00 0.000000e+00 0
0.000000e+00 0.000000e+00 0
0.000000e+00 0.000000e+00 0
0.000000e+00 0.000000e+00 0
0.000000e+00 0.000000e+00 0
0.000000e+00 0.000000e+00 0
0.000000e+00 0.000000e+00 0
0.000000e+00 0.000000e+00 0
0.000000e+00 0.000000e+00 0
0.000000e+00 0.000000e+00 0
0.000000e+00 0.000000e+00 0
0.000000e+00 0.000000e+00 0
0.000000e+00 0.000000e+00 0
0.000000e+00 0.000000e+00 0
0.000000e+00 0.000000e+00 0
0.000000e+00 0.000000e+00 0
0.000000e+00 0.000000e+00 0
0.000000e+00 0.000000e+00 0
0.000000e+00 0.000000e+00 0
0.000000e+00 0.000000e+00 0
0.000000e+00 0.000000e+00 0
0.000000e+00 0.000000e+00 0
0.000000e+00 0.000000e+00 0
0.000000e+00 0.000000e+00 0
1.000000e+00 0.000000e+00 0
1.000000e+00 0.000000e+00 0
1.000000e+00 0.000000e+00 0
1.000000e+00 0.000000e+00 0
1.000000e+00 0.000000e+00 0
1.000000e+00 0.000000e+00 0
1.000000e+00 -2.937664e-01 0
1.426702e+00 -4.986904e-01 0
1.631544e+00 -6.216997e-01 0
1.719459e+00 -1.069005e+00 0
2.240319e+00 -1.115986e+00 0
2.350739e+00 -7.649779e-01 0
2.340252e+00 -4.993748e-01 0
2.271040e+00 -3.207169e-01 0
2.197661e+00 -1.885635e-01 0
2.146340e+00 -9.482399e-02 0
2.113263e+00 -3.441563e-02 0
2.095578e+00 5.204333e-03 0
2.093161e+00 3.482209e-02 0
2.105882e+00 6.395540e-02 0
2.162456e+00 1.407177e-01 0
2.156017e+00 2.987055e-01 0
2.021921e+00 5.356204e-01 0
1.909699e+00 7.889527e-01 0
1.791441e+00 9.510601e-01 0
1.653210e+00 1.020311e+00 0
1.501145e+00 1.018672e+00 0
1.213308e+00 6.851618e-01 0
6.380056e-01 8.836243e-02 0
2.217087e-01 -2.223411e-01 0
9.599699e-16 0.000000e+00 0
0.000000e+00 1.237127e-01 0
0.000000e+00 0.000000e+00 0
0.000000e+00 0.000000e+00 0
0.000000e+00 0.000000e+00 0
0.000000e+00 0.000000e+00 0
0.000000e+00 0.000000e+00 0
0.000000e+00 0.000000e+00 0
0.000000e+00 0.000000e+00 0
0.000000e+00 0.000000e+00 0
0.000000e+00 0.000000e+00 0
0.000000e+00 0.000000e+00 0
0.000000e+00 0.000000e+00 0
0.000000e+00 0.000000e+00 0
0.000000e+00 0.000000e+00 0
0.000000e+00 0.000000e+00 0
0.000000e+00 0.000000e+00 0
0.000000e+00 0.000000e+00 0
0.000000e+00 0.000000e+00 0
0.000000e+00 0.000000e+00 0
0.000000e+00 0.000000e+00 0
0.000000e+00 0.000000e+00 0
0.000000e+00 0.000000e+00 0
0.000000e+00 0.000000e+00 0
0.000000e+00 0.000000e+00 0
0.000000e+00 0.000000e+00 0
0.000000e+00 0.000000e+00 0
0.000000e+00 0.000000e+00 0
0.000000e+00 0.000000e+00 0
0.000000e+00 0.000000e+00 0
0.000000e+00 0.000000e+00 0
0.000000e+00 0.000000e+00 0
0.000000e+00 0.000000e+00 0
0.000000e+00 0.000000e+00 0
0.000000e+00 0.000000e+00 0
0.000000e+00 0.000000e+00 0
0.000000e+00 0.000000e+00 0
0.000000e+00 0.000000e+00 0
0.000000e+00 0.000000e+00 0
0.000000e+00 0.000000e+00 0
0.000000e+00 0.000000e+00 0
0.000000e+00 0.000000e+00 0
0.000000e+00 0.000000e+00 0
0.000000e+00 0.000000e+00 0
0.000000e+00 0.000000e+00 0
0.000000e+00 0.000000e+00 0
0.000000e+00 0.000000e+00 0
0.000000e+00 0.000000e+00 0
0.000000e+00 0.000000e+00 0
2.000000e+00 0.000000e+00 0
1.985551e+00 0.000000e+00 0
2.017123e+00 0.000000e+00 0
2.071779e+00 0.000000e+00 0
2.137478e+00 0.000000e+00 0
2.208841e+00 0.000000e+00 0
2.285740e+00 -2.885553e-01 0
2.212889e+00 -6.854074e-01 0
2.363487e+00 -9.545015e-01 0
2.380113e+00 -1.365349e+00 0
2.679021e+00 -1.212224e+00 0
2.340459e+00 -6.174048e-01 0
2.052111e+00 -3.359318e-01 0
1.862425e+00 -1.930260e-01 0
1.745100e+00 -1.041014e-01 0
1.681920e+00 -4.465238e-02 0
1.654328e+00 -5.571258e-03 0
1.648975e+00 1.875836e-02 0
1.659310e+00 3.199359e-02 0
1.682309e+00 7.159297e-03 0
1.720532e+00 7.105183e-02 0
2.302889e+00 3.172161e-01 0
2.378457e+00 6.264210e-01 0
2.425076e+00 9.197518e-01 0
2.294954e+00 1.101950e+00 0
2.123524e+00 1.167914e+00 0
1.981516e+00 1.227896e+00 0
1.590154e+00 1.098136e+00 0
1.080203e+00 8.140945e-01 0
4.139192e-01 2.463813e-01 0
1.792216e-15 0.000000e+00 0
0.000000e+00 1.030443e-01 0
0.000000e+00 0.000000e+00 0
0.000000e+00 0.000000e+00 0
0.000000e+00 0.000000e+00 0
0.000000e+00 0.000000e+00 0
0.000000e+00 0.000000e+00 0
0.000000e+00 0.000000e+00 0
0.000000e+00 0.000000e+00 0
0.000000e+00 0.000000e+00 0
0.000000e+00 0.000000e+00 0
0.000000e+00 0.000000e+00 0
0.000000e+00 0.000000e+00 0
0.000000e+00 0.000000e+00 0
0.000000e+00 0.000000e+00 0
0.000000e+00 0.000000e+00 0
0.000000e+00 0.000000e+00 0
0.000000e+00 0.000000e+00 0
0.000000e+00 0.000000e+00 0
0.000000e+00 0.000000e+00 0
0.000000e+00 0.000000e+00 0
0.000000e+00 0.000000e+00 0
0.000000e+00 0.000000e+00 0
0.000000e+00 0.000000e+00 0
0.000000e+00 0.000000e+00 0
0.000000e+00 0.000000e+00 0
0.000000e+00 0.000000e+00 0
0.000000e+00 0.000000e+00 0
0.000000e+00 0.000000e+00 0
0.000000e+00 0.000000e+00 0
0.000000e+00 0.000000e+00 0
0.000000e+00 0.000000e+00 0
0.000000e+00 0.000000e+00 0
0.000000e+00 0.000000e+00 0
0.000000e+00 0.000000e+00 0
0.000000e+00 0.000000e+00 0
0.000000e+00 0.000000e+00 0
0.000000e+00 0.000000e+00 0
0.000000e+00 0.000000e+00 0
0.000000e+00 0.000000e+00 0
0.000000e+00 0.000000e+00 0
0.000000e+00 0.000000e+00 0
0.000000e+00 0.000000e+00 0
0.000000e+00 0.000000e+00 0
0.000000e+00 0.000000e+00 0
0.000000e+00 0.000000e+00 0
0.000000e+00 0.000000e+00 0
0.000000e+00 0.000000e+00 0
0.000000e+00 0.000000e+00 0
2.000000e+00 0.000000e+00 0
1.963642e+00 -2.092203e-01 0
1.973002e+00 -3.075193e-01 0
2.010819e+00 -3.591729e-01 0
2.063585e+00 -3.862376e-01 0
2.124009e+00 -4.020328e-01 0
2.193149e+00 -4.597479e-01 0
2.124312e+00 -5.957123e-01 0
1.984827e+00 -8.233629e-01 0
1.754565e+00 -1.447659e+00 0
1.278670e+00 -9.644812e-01 0
2.052178e-15 0.000000e+00 0
1.578598e-15 0.000000e+00 0
1.420739e-15 0.000000e+00 0
1.262879e-15 0.000000e+00 0
1.183949e-15 0.000000e+00 0
1.183949e-15 0.000000e+00 0
1.183949e-15 0.000000e+00 0
1.221925e-15 0.000000e+00 0
1.183949e-15 0.000000e+00 0
1.262879e-15 -5.075669e-01 0
1.154766e+00 -3.885910e-01 0
1.265961e+00 4.079793e-01 0
1.363873e+00 8.761841e-01 0
1.307666e+00 1.244831e+00 0
2.640053e+00 1.326499e+00 0
2.568813e+00 1.575853e+00 0
2.049780e+00 1.624649e+00 0
1.617241e+00 1.315045e+00 0
1.062329e+00 9.060849e-01 0
4.599746e-15 0.000000e+00 0
-1.291274e-01 -3.086850e-01 0
0.000000e+00 0.000000e+00 0
0.000000e+00 0.000000e+00 0
0.000000e+00 0.000000e+00 0
0.000000e+00 0.000000e+00 0
0.000000e+00 0.000000e+00 0
0.000000e+00 0.000000e+00 0
0.000000e+00 0.000000e+00 0
0.000000e+00 0.000000e+00 0
0.000000e+00 0.000000e+00 0
0.000000e+00 0.000000e+00 0
0.000000e+00 0.000000e+00 0
0.000000e+00 0.000000e+00 0
0.000000e+00 0.000000e+00 0
0.000000e+00 0.000000e+00 0
0.000000e+00 0.000000e+00 0
0.000000e+00 0.000000e+00 0
0.000000e+00 0.000000e+00 0
0.000000e+00 0.000000e+00 0
0.000000e+00 0.000000e+00 0
0.000000e+00 0.000000e+00 0
0.000000e+00 0.000000e+00 0
0.000000e+00 0.000000e+00 0
0.000000e+00 0.000000e+00 0
0.000000e+00 0.000000e+00 0
0.000000e+00 0.000000e+00 0
0.000000e+00 0.000000e+00 0
0.000000e+00 0.000000e+00 0
0.000000e+00 0.000000e+00 0
0.000000e+00 0.000000e+00 0
0.000000e+00 0.000000e+00 0
0.000000e+00 0.000000e+00 0
0.000000e+00 0.000000e+00 0
0.000000e+00 0.000000e+00 0
0.000000e+00 0.000000e+00 0
0.000000e+00 0.000000e+00 0
0.000000e+00 0.000000e+00 0
0.000000e+00 0.000000e+00 0
0.000000e+00 0.000000e+00 0
0.000000e+00 0.000000e+00 0
0.000000e+00 0.000000e+00 0
0.000000e+00 0.000000e+00 0
0.000000e+00 0.000000e+00 0
0.000000e+00 0.000000e+00 0
0.000000e+00 0.000000e+00 0
0.000000e+00 0.000000e+00 0
0.000000e+00 0.000000e+00 0
0.000000e+00 0.000000e+00 0
2.000000e+00 0.000000e+00 0
1.976441e+00 -1.631297e-01 0
1.951085e+00 -2.667253e-01 0
1.925598e+00 -3.280722e-01 0
1.895820e+00 -3.613005e-01 0
1.858546e+00 -3.824994e-01 0
1.810960e+00 -4.127604e-01 0
1.702264e+00 -4.677856e-01 0
1.489467e+00 -5.682480e-01 0
1.102086e+00 -7.477966e-01 0
0.000000e+00 -9.471590e-16 0
-9.968101e-01 4.306890e-01 0
-7.930272e-01 0.000000e+00 0
-6.752344e-01 0.000000e+00 0
-6.082502e-01 0.000000e+00 0
-5.755818e-01 0.000000e+00 0
-5.655060e-01 0.000000e+00 0
-5.702486e-01 0.000000e+00 0
-5.834628e-01 0.000000e+00 0
-6.008750e-01 0.000000e+00 0
-5.903161e-01 0.000000e+00 0
0.000000e+00 0.000000e+00 0
0.000000e+00 0.000000e+00 0
0.000000e+00 0.000000e+00 0
0.000000e+00 6.576506e-01 0
1.433289e+00 1.326499e+00 0
1.433289e+00 1.395275e+00 0
1.604879e+00 1.642944e+00 0
1.693621e+00 1.845629e+00 0
1.308440e+00 1.900172e+00 0
4.958566e-01 9.710610e-01 0
-9.633555e-03 4.074004e-16 0
0.000000e+00 0.000000e+00 0
0.000000e+00 0.000000e+00 0
0.000000e+00 0.000000e+00 0
0.000000e+00 0.000000e+00 0
0.000000e+00 0.000000e+00 0
0.000000e+00 0.000000e+00 0
0.000000e+00 0.000000e+00 0
0.000000e+00 0.000000e+00 0
0.000000e+00 0.000000e+00 0
0.000000e+00 0.000000e+00 0
0.000000e+00 0.000000e+00 0
0.000000e+00 0.000000e+00 0
0.000000e+00 0.000000e+00 0
0.000000e+00 0.000000e+00 0
0.000000e+00 0.000000e+00 0
0.000000e+00 0.000000e+00 0
0.000000e+00 0.000000e+00 0
0.000000e+00 0.000000e+00 0
0.000000e+00 0.000000e+00 0
0.000000e+00 0.000000e+00 0
0.000000e+00 0.000000e+00 0
0.000000e+00 0.000000e+00 0
0.000000e+00 0.000000e+00 0
0.000000e+00 0.000000e+00 0
0.000000e+00 0.000000e+00 0
0.000000e+00 0.000000e+00 0
0.000000e+00 0.000000e+00 0
0.000000e+00 0.000000e+00 0
0.000000e+00 0.000000e+00 0
0.000000e+00 0.000000e+00 0
0.000000e+00 0.000000e+00 0
0.000000e+00 0.000000e+00 0
0.000000e+00 0.000000e+00 0
0.000000e+00 0.000000e+00 0
0.000000e+00 0.000000e+00 0
0.000000e+00 0.000000e+00 0
0.000000e+00 0.000000e+00 0
0.000000e+00 0.000000e+00 0
0.000000e+00 0.000000e+00 0
0.000000e+00 0.000000e+00 0
0.000000e+00 0.000000e+00 0
0.000000e+00 0.000000e+00 0
0.000000e+00 0.000000e+00 0
0.000000e+00 0.000000e+00 0
0.000000e+00 0.000000e+00 0
0.000000e+00 0.000000e+00 0
0.000000e+00 0.000000e+00 0
2.000000e+00 0.000000e+00 0
1.980154e+00 -1.581223e-01 0
1.949008e+00 -2.544069e-01 0
1.904597e+00 -3.014405e-01 0
1.845183e+00 -3.161919e-01 0
1.768956e+00 -3.133843e-01 0
1.668886e+00 -2.964892e-01 0
1.517990e+00 -2.598674e-01 0
1.264961e+00 -1.963917e-01 0
7.888617e-01 -1.182658e-02 0
0.000000e+00 1.479936e-16 0
0.000000e+00 -6.667566e-02 0
0.000000e+00 0.000000e+00 0
0.000000e+00 0.000000e+00 0
0.000000e+00 0.000000e+00 0
0.000000e+00 0.000000e+00 0
0.000000e+00 0.000000e+00 0
0.000000e+00 0.000000e+00 0
0.000000e+00 0.000000e+00 0
0.000000e+00 0.000000e+00 0
0.000000e+00 0.000000e+00 0
0.000000e+00 0.000000e+00 0
0.000000e+00 0.000000e+00 0
0.000000e+00 0.000000e+00 0
0.000000e+00 0.000000e+00 0
0.000000e+00 0.000000e+00 0
0.000000e+00 7.264265e-01 0
4.287746e-01 1.418819e+00 0
8.119916e-01 1.692169e+00 0
1.071813e+00 2.121672e+00 0
9.727988e-01 1.515060e+00 0
3.967860e-01 3.931646e-01 0
2.947836e-01 0.000000e+00 0
2.947836e-01 0.000000e+00 0
2.417857e-01 0.000000e+00 0
0.000000e+00 0.000000e+00 0
0.000000e+00 0.000000e+00 0
0.000000e+00 0.000000e+00 0
0.000000e+00 0.000000e+00 0
0.000000e+00 0.000000e+00 0
0.000000e+00 0.000000e+00 0
0.000000e+00 0.000000e+00 0
0.000000e+00 0.000000e+00 0
0.000000e+00 0.000000e+00 0
0.000000e+00 0.000000e+00 0
0.000000e+00 0.000000e+00 0
0.000000e+00 0.000000e+00 0
0.000000e+00 0.000000e+00 0
0.000000e+00 0.000000e+00 0
0.000000e+00 0.000000e+00 0
0.000000e+00 0.000000e+00 0
0.000000e+00 0.000000e+00 0
0.000000e+00 0.000000e+00 0
0.000000e+00 0.000000e+00 0
0.000000e+00 0.000000e+00 0
0.000000e+00 0.000000e+00 0
0.000000e+00 0.000000e+00 0
0.000000e+00 0.000000e+00 0
0.000000e+00 0.000000e+00 0
0.000000e+00 0.000000e+00 0
0.000000e+00 0.000000e+00 0
0.000000e+00 0.000000e+00 0
0.000000e+00 0.000000e+00 0
0.000000e+00 0.000000e+00 0
0.000000e+00 0.000000e+00 0
0.000000e+00 0.000000e+00 0
0.000000e+00 0.000000e+00 0
0.000000e+00 0.000000e+00 0
0.000000e+00 0.000000e+00 0
0.000000e+00 0.000000e+00 0
0.000000e+00 0.000000e+00 0
0.000000e+00 0.000000e+00 0
0.000000e+00 0.000000e+00 0
0.000000e+00 0.000000e+00 0