<?xml version="1.0"?>
<VTKFile type="StructuredGrid">
<StructuredGrid WholeExtent="0 19 0 33 0 0 ">
<Piece Extent="0 19 0 33 0 0 ">
<Points>
<DataArray type="Float64" format="ascii" NumberOfComponents="3">
0.000000e+00 0.000000e+00 0.000000e+00
1.052632e-01 0.000000e+00 0.000000e+00
2.105263e-01 0.000000e+00 0.000000e+00
3.157895e-01 0.000000e+00 0.000000e+00
4.210526e-01 0.000000e+00 0.000000e+00
5.263158e-01 0.000000e+00 0.000000e+00
6.315789e-01 0.000000e+00 0.000000e+00
7.368421e-01 0.000000e+00 0.000000e+00
8.421053e-01 0.000000e+00 0.000000e+00
9.473684e-01 0.000000e+00 0.000000e+00
1.052632e+00 0.000000e+00 0.000000e+00
1.157895e+00 0.000000e+00 0.000000e+00
1.263158e+00 0.000000e+00 0.000000e+00
1.368421e+00 0.000000e+00 0.000000e+00
1.473684e+00 0.000000e+00 0.000000e+00
1.578947e+00 0.000000e+00 0.000000e+00
1.684211e+00 0.000000e+00 0.000000e+00
1.789474e+00 0.000000e+00 0.000000e+00
1.894737e+00 0.000000e+00 0.000000e+00
2.000000e+00 0.000000e+00 0.000000e+00
0.000000e+00 1.060606e-01 0.000000e+00
1.052632e-01 1.060606e-01 0.000000e+00
2.105263e-01 1.060606e-01 0.000000e+00
3.157895e-01 1.060606e-01 0.000000e+00
4.210526e-01 1.060606e-01 0.000000e+00
5.263158e-01 1.060606e-01 0.000000e+00
6.315789e-01 1.060606e-01 0.000000e+00
7.368421e-01 1.060606e-01 0.000000e+00
8.421053e-01 1.060606e-01 0.000000e+00
9.473684e-01 1.060606e-01 0.000000e+00
1.052632e+00 1.060606e-01 0.000000e+00
1.157895e+00 1.060606e-01 0.000000e+00
1.263158e+00 1.060606e-01 0.000000e+00
1.368421e+00 1.060606e-01 0.000000e+00
1.473684e+00 1.060606e-01 0.000000e+00
1.578947e+00 1.060606e-01 0.000000e+00
1.684211e+00 1.060606e-01 0.000000e+00
1.789474e+00 1.060606e-01 0.000000e+00
1.894737e+00 1.060606e-01 0.000000e+00
2.000000e+00 1.060606e-01 0.000000e+00
0.000000e+00 2.121212e-01 0.000000e+00
1.052632e-01 2.121212e-01 0.000000e+00
2.105263e-01 2.121212e-01 0.000000e+00
3.157895e-01 2.121212e-01 0.000000e+00
4.210526e-01 2.121212e-01 0.000000e+00
5.263158e-01 2.121212e-01 0.000000e+00
6.315789e-01 2.121212e-01 0.000000e+00
7.368421e-01 2.121212e-01 0.000000e+00
8.421053e-01 2.121212e-01 0.000000e+00
9.473684e-01 2.121212e-01 0.000000e+00
1.052632e+00 2.121212e-01 0.000000e+00
1.157895e+00 2.121212e-01 0.000000e+00
1.263158e+00 2.121212e-01 0.000000e+00
1.368421e+00 2.121212e-01 0.000000e+00
1.473684e+00 2.121212e-01 0.000000e+00
1.578947e+00 2.121212e-01 0.000000e+00
1.684211e+00 2.121212e-01 0.000000e+00
1.789474e+00 2.121212e-01 0.000000e+00
1.894737e+00 2.121212e-01 0.000000e+00
2.000000e+00 2.121212e-01 0.000000e+00
0.000000e+00 3.181818e-01 0.000000e+00
1.052632e-01 3.181818e-01 0.000000e+00
2.105263e-01 3.181818e-01 0.000000e+00
3.157895e-01 3.181818e-01 0.000000e+00
4.210526e-01 3.181818e-01 0.000000e+00
5.263158e-01 3.181818e-01 0.000000e+00
6.315789e-01 3.181818e-01 0.000000e+00
7.368421e-01 3.181818e-01 0.000000e+00
8.421053e-01 3.181818e-01 0.000000e+00
9.473684e-01 3.181818e-01 0.000000e+00
1.052632e+00 3.181818e-01 0.000000e+00
1.157895e+00 3.181818e-01 0.000000e+00
1.263158e+00 3.181818e-01 0.000000e+00
1.368421e+00 3.181818e-01 0.000000e+00
1.473684e+00 3.181818e-01 0.000000e+00
1.578947e+00 3.181818e-01 0.000000e+00
1.684211e+00 3.181818e-01 0.000000e+00
1.789474e+00 3.181818e-01 0.000000e+00
1.894737e+00 3.181818e-01 0.000000e+00
2.000000e+00 3.181818e-01 0.000000e+00
0.000000e+00 4.242424e-01 0.000000e+00
1.052632e-01 4.242424e-01 0.000000e+00
2.105263e-01 4.242424e-01 0.000000e+00
3.157895e-01 4.242424e-01 0.000000e+00
4.210526e-01 4.242424e-01 0.000000e+00
5.263158e-01 4.242424e-01 0.000000e+00
6.315789e-01 4.242424e-01 0.000000e+00
7.368421e-01 4.242424e-01 0.000000e+00
8.421053e-01 4.242424e-01 0.000000e+00
9.473684e-01 4.242424e-01 0.000000e+00
1.052632e+00 4.242424e-01 0.000000e+00
1.157895e+00 4.242424e-01 0.000000e+00
1.263158e+00 4.242424e-01 0.000000e+00
1.368421e+00 4.242424e-01 0.000000e+00
1.473684e+00 4.242424e-01 0.000000e+00
1.578947e+00 4.242424e-01 0.000000e+00
1.684211e+00 4.242424e-01 0.000000e+00
1.789474e+00 4.242424e-01 0.000000e+00
1.894737e+00 4.242424e-01 0.000000e+00
2.000000e+00 4.242424e-01 0.000000e+00
0.000000e+00 5.303030e-01 0.000000e+00
1.052632e-01 5.303030e-01 0.000000e+00
2.105263e-01 5.303030e-01 0.000000e+00
3.157895e-01 5.303030e-01 0.000000e+00
4.210526e-01 5.303030e-01 0.000000e+00
5.263158e-01 5.303030e-01 0.000000e+00
6.315789e-01 5.303030e-01 0.000000e+00
7.368421e-01 5.303030e-01 0.000000e+00
8.421053e-01 5.303030e-01 0.000000e+00
9.473684e-01 5.303030e-01 0.000000e+00
1.052632e+00 5.303030e-01 0.000000e+00
1.157895e+00 5.303030e-01 0.000000e+00
1.263158e+00 5.303030e-01 0.000000e+00
1.368421e+00 5.303030e-01 0.000000e+00
1.473684e+00 5.303030e-01 0.000000e+00
1.578947e+00 5.303030e-01 0.000000e+00
1.684211e+00 5.303030e-01 0.000000e+00
1.789474e+00 5.303030e-01 0.000000e+00
1.894737e+00 5.303030e-01 0.000000e+00
2.000000e+00 5.303030e-01 0.000000e+00
0.000000e+00 6.363636e-01 0.000000e+00
1.052632e-01 6.363636e-01 0.000000e+00
2.105263e-01 6.363636e-01 0.000000e+00
3.157895e-01 6.363636e-01 0.000000e+00
4.210526e-01 6.363636e-01 0.000000e+00
5.263158e-01 6.363636e-01 0.000000e+00
6.315789e-01 6.363636e-01 0.000000e+00
7.368421e-01 6.363636e-01 0.000000e+00
8.421053e-01 6.363636e-01 0.000000e+00
9.473684e-01 6.363636e-01 0.000000e+00
1.052632e+00 6.363636e-01 0.000000e+00
1.157895e+00 6.363636e-01 0.000000e+00
1.263158e+00 6.363636e-01 0.000000e+00
1.368421e+00 6.363636e-01 0.000000e+00
1.473684e+00 6.363636e-01 0.000000e+00
1.578947e+00 6.363636e-01 0.000000e+00
1.684211e+00 6.363636e-01 0.000000e+00
1.789474e+00 6.363636e-01 0.000000e+00
1.894737e+00 6.363636e-01 0.000000e+00
2.000000e+00 6.363636e-01 0.000000e+00
0.000000e+00 7.424242e-01 0.000000e+00
1.052632e-01 7.424242e-01 0.000000e+00
2.105263e-01 7.424242e-01 0.000000e+00
3.157895e-01 7.424242e-01 0.000000e+00
4.210526e-01 7.424242e-01 0.000000e+00
5.263158e-01 7.424242e-01 0.000000e+00
6.315789e-01 7.424242e-01 0.000000e+00
7.368421e-01 7.424242e-01 0.000000e+00
8.421053e-01 7.424242e-01 0.000000e+00
9.473684e-01 7.424242e-01 0.000000e+00
1.052632e+00 7.424242e-01 0.000000e+00
1.157895e+00 7.424242e-01 0.000000e+00
1.263158e+00 7.424242e-01 0.000000e+00
1.368421e+00 7.424242e-01 0.000000e+00
1.473684e+00 7.424242e-01 0.000000e+00
1.578947e+00 7.424242e-01 0.000000e+00
1.684211e+00 7.424242e-01 0.000000e+00
1.789474e+00 7.424242e-01 0.000000e+00
1.894737e+00 7.424242e-01 0.000000e+00
2.000000e+00 7.424242e-01 0.000000e+00
0.000000e+00 8.484848e-01 0.000000e+00
1.052632e-01 8.484848e-01 0.000000e+00
2.105263e-01 8.484848e-01 0.000000e+00
3.157895e-01 8.484848e-01 0.000000e+00
4.210526e-01 8.484848e-01 0.000000e+00
5.263158e-01 8.484848e-01 0.000000e+00
6.315789e-01 8.484848e-01 0.000000e+00
7.368421e-01 8.484848e-01 0.000000e+00
8.421053e-01 8.484848e-01 0.000000e+00
9.473684e-01 8.484848e-01 0.000000e+00
1.052632e+00 8.484848e-01 0.000000e+00
1.157895e+00 8.484848e-01 0.000000e+00
1.263158e+00 8.484848e-01 0.000000e+00
1.368421e+00 8.484848e-01 0.000000e+00
1.473684e+00 8.484848e-01 0.000000e+00
1.578947e+00 8.484848e-01 0.000000e+00
1.684211e+00 8.484848e-01 0.000000e+00
1.789474e+00 8.484848e-01 0.000000e+00
1.894737e+00 8.484848e-01 0.000000e+00
2.000000e+00 8.484848e-01 0.000000e+00
0.000000e+00 9.545455e-01 0.000000e+00
1.052632e-01 9.545455e-01 0.000000e+00
2.105263e-01 9.545455e-01 0.000000e+00
3.157895e-01 9.545455e-01 0.000000e+00
4.210526e-01 9.545455e-01 0.000000e+00
5.263158e-01 9.545455e-01 0.000000e+00
6.315789e-01 9.545455e-01 0.000000e+00
7.368421e-01 9.545455e-01 0.000000e+00
8.421053e-01 9.545455e-01 0.000000e+00
9.473684e-01 9.545455e-01 0.000000e+00
1.052632e+00 9.545455e-01 0.000000e+00
1.157895e+00 9.545455e-01 0.000000e+00
1.263158e+00 9.545455e-01 0.000000e+00
1.368421e+00 9.545455e-01 0.000000e+00
1.473684e+00 9.545455e-01 0.000000e+00
1.578947e+00 9.545455e-01 0.000000e+00
1.684211e+00 9.545455e-01 0.000000e+00
1.789474e+00 9.545455e-01 0.000000e+00
1.894737e+00 9.545455e-01 0.000000e+00
2.000000e+00 9.545455e-01 0.000000e+00
0.000000e+00 1.060606e+00 0.000000e+00
1.052632e-01 1.060606e+00 0.000000e+00
2.105263e-01 1.060606e+00 0.000000e+00
3.157895e-01 1.060606e+00 0.000000e+00
4.210526e-01 1.060606e+00 0.000000e+00
5.263158e-01 1.060606e+00 0.000000e+00
6.315789e-01 1.060606e+00 0.000000e+00
7.368421e-01 1.060606e+00 0.000000e+00
8.421053e-01 1.060606e+00 0.000000e+00
9.473684e-01 1.060606e+00 0.000000e+00
1.052632e+00 1.060606e+00 0.000000e+00
1.157895e+00 1.060606e+00 0.000000e+00
1.263158e+00 1.060606e+00 0.000000e+00
1.368421e+00 1.060606e+00 0.000000e+00
1.473684e+00 1.060606e+00 0.000000e+00
1.578947e+00 1.060606e+00 0.000000e+00
1.684211e+00 1.060606e+00 0.000000e+00
1.789474e+00 1.060606e+00 0.000000e+00
1.894737e+00 1.060606e+00 0.000000e+00
2.000000e+00 1.060606e+00 0.000000e+00
0.000000e+00 1.166667e+00 0.000000e+00
1.052632e-01 1.166667e+00 0.000000e+00
2.105263e-01 1.166667e+00 0.000000e+00
3.157895e-01 1.166667e+00 0.000000e+00
4.210526e-01 1.166667e+00 0.000000e+00
5.263158e-01 1.166667e+00 0.000000e+00
6.315789e-01 1.166667e+00 0.000000e+00
7.368421e-01 1.166667e+00 0.000000e+00
8.421053e-01 1.166667e+00 0.000000e+00
9.473684e-01 1.166667e+00 0.000000e+00
1.052632e+00 1.166667e+00 0.000000e+00
1.157895e+00 1.166667e+00 0.000000e+00
1.263158e+00 1.166667e+00 0.000000e+00
1.368421e+00 1.166667e+00 0.000000e+00
1.473684e+00 1.166667e+00 0.000000e+00
1.578947e+00 1.166667e+00 0.000000e+00
1.684211e+00 1.166667e+00 0.000000e+00
1.789474e+00 1.166667e+00 0.000000e+00
1.894737e+00 1.166667e+00 0.000000e+00
2.000000e+00 1.166667e+00 0.000000e+00
0.000000e+00 1.272727e+00 0.000000e+00
1.052632e-01 1.272727e+00 0.000000e+00
2.105263e-01 1.272727e+00 0.000000e+00
3.157895e-01 1.272727e+00 0.000000e+00
4.210526e-01 1.272727e+00 0.000000e+00
5.263158e-01 1.272727e+00 0.000000e+00
6.315789e-01 1.272727e+00 0.000000e+00
7.368421e-01 1.272727e+00 0.000000e+00
8.421053e-01 1.272727e+00 0.000000e+00
9.473684e-01 1.272727e+00 0.000000e+00
1.052632e+00 1.272727e+00 0.000000e+00
[...]
<PointData>
<DataArray Name="Velocity" type="Float64" format="ascii" NumberOfComponents="3">
0.000000e+00 0.000000e+00 0
0.000000e+00 0.000000e+00 0
0.000000e+00 0.000000e+00 0
0.000000e+00 0.000000e+00 0
0.000000e+00 0.000000e+00 0
0.000000e+00 0.000000e+00 0
0.000000e+00 0.000000e+00 0
0.000000e+00 0.000000e+00 0
0.000000e+00 0.000000e+00 0
0.000000e+00 0.000000e+00 0
0.000000e+00 0.000000e+00 0
1.841668e-16 0.000000e+00 0
0.000000e+00 0.000000e+00 0
0.000000e+00 0.000000e+00 0
0.000000e+00 0.000000e+00 0
-1.645503e-15 0.000000e+00 0
0.000000e+00 0.000000e+00 0
0.000000e+00 0.000000e+00 0
0.000000e+00 0.000000e+00 0
0.000000e+00 0.000000e+00 0
0.000000e+00 0.000000e+00 0
-2.232537e+01 2.124306e+01 0
-4.063729e+01 1.604224e+01 0
-5.397757e+01 1.073532e+01 0
-6.177677e+01 4.465827e+00 0
-6.310441e+01 -2.761206e+00 0
-5.672309e+01 -1.128097e+01 0
-4.149410e+01 -2.055135e+01 0
-1.776117e+01 -2.754148e+01 0
9.368470e+00 -2.068406e+01 0
2.284280e+01 -1.065984e+01 0
3.388539e+01 -9.444727e+00 0
4.154768e+01 -9.114163e+00 0
5.132781e+01 -6.961550e+00 0
5.624180e+01 -1.981656e+00 0
5.504726e+01 3.085500e+00 0
4.906485e+01 6.711028e+00 0
3.944463e+01 1.450722e+01 0
2.536720e+01 2.133213e+01 0
0.000000e+00 -4.723602e-14 0
0.000000e+00 0.000000e+00 0
-1.933045e+01 4.094514e+01 0
-3.643487e+01 3.189199e+01 0
-4.903578e+01 2.129963e+01 0
-5.670820e+01 9.195992e+00 0
-5.825728e+01 -5.091958e+00 0
-5.233424e+01 -2.177403e+01 0
-3.863559e+01 -3.925709e+01 0
-1.782425e+01 -5.124790e+01 0
3.657139e+00 -4.091158e+01 0
2.147174e+01 -2.470265e+01 0
3.518332e+01 -1.884658e+01 0
3.822671e+01 -1.757456e+01 0
4.995151e+01 -1.480544e+01 0
5.540520e+01 -3.747627e+00 0
5.250344e+01 7.231325e+00 0
4.526277e+01 1.572084e+01 0
3.360222e+01 2.387717e+01 0
2.255935e+01 3.974345e+01 0
0.000000e+00 -1.093887e-13 0
0.000000e+00 0.000000e+00 0
-1.605699e+01 5.795395e+01 0
-3.024308e+01 4.597261e+01 0
-4.123236e+01 3.116223e+01 0
-4.809747e+01 1.375718e+01 0
-4.957994e+01 -7.168294e+00 0
-4.447808e+01 -3.105131e+01 0
-3.345234e+01 -5.532279e+01 0
-1.649360e+01 -7.015462e+01 0
-4.828701e-01 -6.027775e+01 0
2.044246e+01 -4.242485e+01 0
3.773140e+01 -2.632663e+01 0
3.643570e+01 -2.399423e+01 0
2.448925e+01 -2.427019e+01 0
5.692796e+01 -4.552921e+00 0
5.515028e+01 1.330477e+01 0
4.405560e+01 2.575544e+01 0
3.074124e+01 3.738264e+01 0
1.448964e+01 5.518892e+01 0
0.000000e+00 -1.392220e-13 0
0.000000e+00 0.000000e+00 0
-1.195962e+01 7.141734e+01 0
-2.207769e+01 5.725808e+01 0
-2.968588e+01 3.928927e+01 0
-3.450703e+01 1.760681e+01 0
-3.670500e+01 -8.738767e+00 0
-3.365711e+01 -3.802381e+01 0
-2.708552e+01 -6.745356e+01 0
-1.475895e+01 -8.446713e+01 0
-3.001963e+00 -7.812746e+01 0
1.591953e+01 -6.320643e+01 0
3.298331e+01 -3.496099e+01 0
1.845508e+01 -6.414819e+00 0
0.000000e+00 -1.057228e+01 0
2.955376e+01 -7.577537e+00 0
2.986179e+01 1.583281e+01 0
3.979680e+01 3.594640e+01 0
2.704272e+01 5.366711e+01 0
1.177277e+01 7.071757e+01 0
0.000000e+00 -1.690552e-13 0
0.000000e+00 0.000000e+00 0
-7.692085e+00 8.019889e+01 0
-1.353301e+01 6.383316e+01 0
-1.660680e+01 4.368574e+01 0
-1.598300e+01 2.082948e+01 0
-9.665770e+00 -8.024659e+00 0
-1.972689e+01 -4.074366e+01 0
-2.075034e+01 -7.436412e+01 0
-1.311343e+01 -9.442062e+01 0
-5.241090e+00 -9.118863e+01 0
5.601875e+00 -7.868274e+01 0
1.837112e+01 -3.593761e+01 0
0.000000e+00 -3.357458e-15 0
0.000000e+00 -5.533436e-15 0
0.000000e+00 -3.966014e-15 0
3.604504e-14 1.283807e+01 0
1.708762e+01 3.906189e+01 0
1.309662e+01 6.323632e+01 0
6.601981e+00 8.243651e+01 0
0.000000e+00 -1.889441e-13 0
0.000000e+00 0.000000e+00 0
-4.281302e+00 8.505287e+01 0
-7.195708e+00 6.624033e+01 0
-7.985788e+00 4.175782e+01 0
-5.914061e-02 1.061320e+01 0
1.178471e+01 -4.966514e+00 0
3.040047e-01 -2.685526e+01 0
-1.718796e+01 -7.411711e+01 0
-1.167325e+01 -1.000939e+02 0
-6.884623e+00 -9.698455e+01 0
-3.112966e+00 -8.699752e+01 0
3.545848e+00 -4.141215e+01 0
0.000000e+00 0.000000e+00 0
0.000000e+00 0.000000e+00 0
0.000000e+00 0.000000e+00 0
-1.729829e+01 0.000000e+00 0
0.000000e+00 3.015724e+01 0
-1.256156e+00 6.652153e+01 0
8.081062e-01 8.317507e+01 0
0.000000e+00 -2.088330e-13 0
0.000000e+00 0.000000e+00 0
-1.980477e+00 8.744911e+01 0
-3.207836e+00 6.756571e+01 0
-3.009709e+00 3.649511e+01 0
4.153595e+00 9.092056e-01 0
6.882226e+00 -8.390555e+00 0
6.243215e+00 -2.349098e+01 0
-1.297856e+01 -7.423560e+01 0
-8.842561e+00 -1.048020e+02 0
-6.528148e+00 -9.981377e+01 0
-5.365533e+00 -8.919223e+01 0
4.134154e+00 -4.264687e+01 0
0.000000e+00 0.000000e+00 0
0.000000e+00 0.000000e+00 0
0.000000e+00 -2.036268e-03 0
-4.167934e+01 -2.036268e-03 0
-1.162150e+01 1.866338e+01 0
-6.183356e+00 5.267277e+01 0
-2.079093e+00 8.024763e+01 0
0.000000e+00 -1.889441e-13 0
0.000000e+00 0.000000e+00 0
-6.840574e-01 8.828501e+01 0
-9.129206e-01 6.727736e+01 0
1.124965e+00 3.434062e+01 0
2.694544e+00 6.929301e+00 0
0.000000e+00 0.000000e+00 0
0.000000e+00 -1.050680e-03 0
-6.433655e+00 -5.162207e+01 0
-5.013025e+00 -1.053521e+02 0
-4.819337e+00 -1.004879e+02 0
-4.810506e+00 -9.774060e+01 0
3.463751e+00 -5.099172e+01 0
0.000000e+00 -7.912786e-03 0
0.000000e+00 0.000000e+00 0
-3.135315e+00 -2.036268e-03 0
-3.465309e+01 2.207093e+01 0
-7.648279e+00 3.196838e+01 0
-6.736864e+00 4.193947e+01 0
-3.689910e+00 7.676000e+01 0
0.000000e+00 -1.939163e-13 0
0.000000e+00 0.000000e+00 0
-8.633110e-02 8.836895e+01 0
1.153687e-01 6.574298e+01 0
3.336721e+00 3.286031e+01 0
1.385868e+00 6.929301e+00 0
0.000000e+00 0.000000e+00 0
0.000000e+00 -1.050680e-03 0
-1.761559e+00 -5.077335e+01 0
-2.799650e+00 -1.042359e+02 0
-3.444007e+00 -1.000178e+02 0
-3.820060e+00 -9.753807e+01 0
-9.594670e+00 -5.098381e+01 0
-9.476804e+00 0.000000e+00 0
-9.476804e+00 -2.036268e-03 0
-2.505142e+01 7.186724e+00 0
-3.554396e+01 3.672114e+01 0
-3.278293e+00 4.673138e+01 0
-1.420422e+01 4.813836e+01 0
-5.114386e+00 7.345973e+01 0
0.000000e+00 -1.789997e-13 0
0.000000e+00 0.000000e+00 0
6.304501e-01 8.816877e+01 0
1.355594e-01 6.382837e+01 0
1.887737e+00 2.416556e+01 0
0.000000e+00 7.253466e-15 0
0.000000e+00 0.000000e+00 0
0.000000e+00 -1.099833e-18 0
0.000000e+00 -5.002484e+01 0
-1.668576e+00 -1.029837e+02 0
-3.214829e+00 -9.933679e+01 0
-4.730193e+00 -9.129595e+01 0
-1.354850e+01 -7.094394e+01 0
-5.656146e+00 -2.602932e+01 0
8.015702e+00 -1.832577e+01 0
-2.191611e+01 -7.752334e+00 0
-2.527191e+01 2.194545e+01 0
-7.251516e+00 3.236774e+01 0
-7.094031e+00 4.387764e+01 0
-4.988298e+00 6.244818e+01 0
0.000000e+00 -1.690552e-13 0
0.000000e+00 9.443143e-16 0
3.207861e+00 8.823236e+01 0
6.479923e-01 6.447617e+01 0
-1.376487e+01 2.416556e+01 0
0.000000e+00 0.000000e+00 0
0.000000e+00 0.000000e+00 0
0.000000e+00 0.000000e+00 0
0.000000e+00 -4.983512e+01 0
-5.282853e-01 -1.016380e+02 0
-3.165510e+00 -9.683026e+01 0
-4.313171e+00 -8.687872e+01 0
-5.071879e+00 -7.214173e+01 0
1.769491e+01 -4.406929e+01 0
1.942974e+01 -1.377887e+01 0
-5.999360e+00 3.538828e-14 0
6.352162e+00 1.007844e-13 0
6.352162e+00 2.099228e+01 0
3.834734e+00 5.828290e+01 0
2.597341e+00 7.478491e+01 0
0.000000e+00 -1.541386e-13 0
0.000000e+00 4.510560e-01 0
6.592903e+00 8.719398e+01 0
4.378595e+00 8.060779e+01 0
-1.003426e+01 3.868760e+01 0
0.000000e+00 0.000000e+00 0
0.000000e+00 0.000000e+00 0
0.000000e+00 0.000000e+00 0
0.000000e+00 -5.000000e+01 0
0.000000e+00 -1.010455e+02 0
-2.501669e+00 -9.626706e+01 0
-9.849201e-01 -8.937514e+01 0
3.607141e+00 -8.740788e+01 0
1.952697e+01 -9.717912e+01 0
4.502084e+00 -4.765543e+01 0
-5.999360e+00 1.690337e+01 0
3.248587e+01 4.814010e+01 0
6.973630e+01 3.750614e+01 0
0.000000e+00 4.633315e+01 0
4.668065e+00 9.070729e+01 0
0.000000e+00 -1.839719e-13 0
0.000000e+00 4.117020e+01 0
1.165163e+01 8.339000e+01 0
7.854517e+00 8.090741e+01 0
7.854517e+00 3.868760e+01 0
0.000000e+00 0.000000e+00 0
0.000000e+00 0.000000e+00 0
0.000000e+00 0.000000e+00 0
0.000000e+00 -5.000000e+01 0
0.000000e+00 -1.006797e+02 0
-1.863596e+00 -9.723538e+01 0
6.800320e-01 -9.303381e+01 0
5.052761e+00 -9.280901e+01 0
1.155296e+01 -9.714444e+01 0
-1.876337e+01 -5.081358e+01 0
-1.579652e+01 3.004513e+01 0
8.250435e+00 3.001863e+01 0
6.338414e+01 -2.649709e-02 0
8.251232e+00 4.528302e+01 0
2.960792e+00 8.942508e+01 0
0.000000e+00 -1.839719e-13 0
0.000000e+00 0.000000e+00 0
1.650421e+01 7.885995e+01 0
2.184101e+00 8.412237e+01 0
2.184101e+00 3.868760e+01 0
0.000000e+00 0.000000e+00 0
0.000000e+00 0.000000e+00 0
0.000000e+00 0.000000e+00 0
0.000000e+00 -5.000000e+01 0
0.000000e+00 -1.004678e+02 0
-1.729357e+00 -9.825220e+01 0
-3.259243e-02 -9.634389e+01 0
2.105557e+00 -9.836318e+01 0
2.528694e+00 -8.090949e+01 0
-3.104297e+01 -2.979473e+01 0
-1.579652e+01 3.345873e+01 0
-1.788327e+01 3.214769e+01 0
0.000000e+00 4.527895e+01 0
8.251232e+00 9.265334e+01 0
1.736988e+01 9.448178e+01 0
0.000000e+00 -1.988885e-13 0
0.000000e+00 3.346958e-16 0
8.817429e+00 8.172453e+01 0
-1.381547e+01 9.502470e+01 0
-1.381547e+01 3.868760e+01 0
0.000000e+00 0.000000e+00 0
0.000000e+00 0.000000e+00 0
0.000000e+00 0.000000e+00 0
0.000000e+00 -5.000000e+01 0
0.000000e+00 -1.001963e+02 0
-1.795704e+00 -9.846156e+01 0
-1.196556e+00 -9.689778e+01 0
-1.688948e+00 -9.538970e+01 0
-6.289942e+00 -7.147171e+01 0
-2.756582e+01 -2.471451e+01 0
-2.866334e+01 1.513715e-14 0
-2.866334e+01 -8.447291e-15 0
0.000000e+00 0.000000e+00 0
0.000000e+00 4.737439e+01 0
1.442685e+01 1.043898e+02 0
0.000000e+00 -2.386662e-13 0
0.000000e+00 1.598689e-01 0
-2.647056e+00 7.574480e+01 0
-1.181254e+01 8.904496e+01 0
-1.181254e+01 3.868760e+01 0
0.000000e+00 0.000000e+00 0
0.000000e+00 0.000000e+00 0
0.000000e+00 0.000000e+00 0
0.000000e+00 -5.000000e+01 0
0.000000e+00 -9.992471e+01 0
-1.575224e+00 -9.831283e+01 0
-1.214895e+00 -9.645146e+01 0
-1.775467e+00 -9.323121e+01 0
-2.471660e+00 -5.541091e+01 0
-3.353205e+01 1.022171e+00 0
-5.436761e+01 7.230326e+00 0
-5.023889e+01 -4.034886e+00 0
-2.157555e+01 0.000000e+00 0
0.000000e+00 0.000000e+00 0
0.000000e+00 5.458867e+01 0
0.000000e+00 -2.187774e-13 0
0.000000e+00 4.769025e+01 0
-2.647056e+00 9.538050e+01 0
0.000000e+00 8.637785e+01 0
0.000000e+00 3.868760e+01 0
0.000000e+00 0.000000e+00 0
0.000000e+00 0.000000e+00 0
0.000000e+00 0.000000e+00 0
0.000000e+00 -5.000000e+01 0
0.000000e+00 -9.979013e+01 0
-1.030492e+00 -9.841846e+01 0
-3.020848e-01 -9.669602e+01 0
6.563185e-01 -9.412342e+01 0
5.059063e+00 -4.004889e+01 0
-2.231762e+01 1.453536e+01 0
-3.234092e+01 -5.221220e-01 0
-3.526442e+01 -1.623758e+01 0
-3.639859e+01 -7.186947e+00 0
-1.340166e+01 0.000000e+00 0
-7.649292e+00 4.977888e+01 0
0.000000e+00 -2.088330e-13 0
0.000000e+00 0.000000e+00 0
0.000000e+00 4.769025e+01 0
0.000000e+00 8.637785e+01 0
0.000000e+00 3.868760e+01 0
0.000000e+00 0.000000e+00 0
0.000000e+00 0.000000e+00 0
0.000000e+00 0.000000e+00 0
0.000000e+00 -5.000000e+01 0
0.000000e+00 -9.981984e+01 0
-5.126224e-01 -9.894188e+01 0
3.704169e-01 -9.815105e+01 0
1.894857e+00 -9.863297e+01 0
5.549146e+00 -3.226293e+01 0
-6.636649e+00 2.586956e+01 0
-6.636649e+00 6.583533e+00 0
-1.368888e+01 -6.996325e+00 0
-1.420862e+01 8.113856e+00 0
-1.967770e+01 2.786139e+01 0
-1.479024e+01 5.941679e+01 0
0.000000e+00 -1.889441e-13 0
0.000000e+00 0.000000e+00 0
0.000000e+00 0.000000e+00 0
0.000000e+00 3.868760e+01 0
0.000000e+00 3.868760e+01 0
0.000000e+00 0.000000e+00 0
0.000000e+00 0.000000e+00 0
0.000000e+00 0.000000e+00 0
0.000000e+00 -5.000000e+01 0
0.000000e+00 -9.989436e+01 0
-2.350296e-01 -9.941243e+01 0
3.844353e-01 -9.912174e+01 0
1.155657e+00 -9.934138e+01 0
8.762760e-01 -4.973771e+01 0
-5.649655e-02 0.000000e+00 0
0.000000e+00 0.000000e+00 0
1.296088e-15 -5.051347e+00 0
6.144274e-01 1.289192e+01 0
-6.826685e+00 3.431333e+01 0
-1.344626e+01 5.389563e+01 0
0.000000e+00 -1.541386e-13 0
0.000000e+00 0.000000e+00 0
0.000000e+00 0.000000e+00 0
0.000000e+00 3.868760e+01 0
0.000000e+00 3.868760e+01 0
0.000000e+00 0.000000e+00 0
0.000000e+00 0.000000e+00 0
0.000000e+00 0.000000e+00 0
0.000000e+00 -5.000000e+01 0
0.000000e+00 -9.995081e+01 0
-1.122303e-01 -9.969701e+01 0
2.440813e-01 -9.955227e+01 0
5.539610e-01 -9.900074e+01 0
1.823865e-01 -4.920078e+01 0
-5.649655e-02 -6.108805e-03 0
0.000000e+00 0.000000e+00 0
0.000000e+00 0.000000e+00 0
0.000000e+00 1.777179e+01 0
-2.609214e+01 3.700253e+01 0
-5.437223e+00 5.040321e+01 0
0.000000e+00 -1.342498e-13 0
0.000000e+00 0.000000e+00 0
0.000000e+00 0.000000e+00 0
0.000000e+00 3.868760e+01 0
0.000000e+00 3.868760e+01 0
0.000000e+00 0.000000e+00 0
0.000000e+00 0.000000e+00 0
0.000000e+00 0.000000e+00 0
0.000000e+00 -5.000000e+01 0
0.000000e+00 -9.998592e+01 0
-5.405306e-02 -9.986300e+01 0
1.502782e-01 -9.979298e+01 0
3.227218e-01 -9.915142e+01 0
3.977052e-01 -4.923552e+01 0
0.000000e+00 0.000000e+00 0
0.000000e+00 0.000000e+00 0
0.000000e+00 0.000000e+00 0
0.000000e+00 1.777179e+01 0
-2.554150e+01 2.648685e+01 0
8.680929e-01 4.076220e+01 0
0.000000e+00 -1.392220e-13 0
0.000000e+00 0.000000e+00 0
0.000000e+00 0.000000e+00 0
0.000000e+00 0.000000e+00 0
0.000000e+00 0.000000e+00 0
0.000000e+00 0.000000e+00 0
0.000000e+00 0.000000e+00 0
0.000000e+00 0.000000e+00 0
0.000000e+00 -5.000000e+01 0
0.000000e+00 -1.000063e+02 0
-2.678651e-02 -9.995838e+01 0
8.820061e-02 -9.993190e+01 0
1.854452e-01 -9.925004e+01 0
6.767724e-01 -4.927022e+01 0
0.000000e+00 0.000000e+00 0
0.000000e+00 0.000000e+00 0
0.000000e+00 0.000000e+00 0
0.000000e+00 0.000000e+00 0
0.000000e+00 8.715055e+00 0
0.000000e+00 4.076220e+01 0
0.000000e+00 -1.392220e-13 0
0.000000e+00 0.000000e+00 0
0.000000e+00 0.000000e+00 0
0.000000e+00 0.000000e+00 0
0.000000e+00 0.000000e+00 0
0.000000e+00 0.000000e+00 0
0.000000e+00 0.000000e+00 0
0.000000e+00 0.000000e+00 0
0.000000e+00 -5.000000e+01 0
0.000000e+00 -1.000168e+02 0
-1.562848e-02 -1.000098e+02 0
4.366594e-02 -1.000068e+02 0
8.704268e-02 -9.974445e+01 0
8.113323e-01 -4.973057e+01 0
0.000000e+00 0.000000e+00 0
0.000000e+00 0.000000e+00 0
0.000000e+00 0.000000e+00 0
0.000000e+00 0.000000e+00 0
0.000000e+00 0.000000e+00 0
0.000000e+00 0.000000e+00 0
0.000000e+00 0.000000e+00 0
0.000000e+00 0.000000e+00 0
0.000000e+00 0.000000e+00 0
0.000000e+00 0.000000e+00 0
0.000000e+00 0.000000e+00 0
0.000000e+00 0.000000e+00 0
0.000000e+00 0.000000e+00 0
0.000000e+00 0.000000e+00 0
0.000000e+00 -5.000000e+01 0
0.000000e+00 -1.000206e+02 0
-1.145220e-02 -1.000324e+02 0
1.504163e-02 -1.000353e+02 0
2.795245e-02 -1.000235e+02 0
2.953611e-01 -5.000000e+01 0
0.000000e+00 0.000000e+00 0
0.000000e+00 0.000000e+00 0
0.000000e+00 0.000000e+00 0
0.000000e+00 0.000000e+00 0
0.000000e+00 0.000000e+00 0
0.000000e+00 0.000000e+00 0
0.000000e+00 0.000000e+00 0
0.000000e+00 0.000000e+00 0
0.000000e+00 0.000000e+00 0
0.000000e+00 0.000000e+00 0
0.000000e+00 0.000000e+00 0
0.000000e+00 0.000000e+00 0
0.000000e+00 0.000000e+00 0
0.000000e+00 0.000000e+00 0
0.000000e+00 -5.000000e+01 0
0.000000e+00 -1.000206e+02 0
-9.399561e-03 -1.000402e+02 0
1.353722e-04 -1.000465e+02 0
2.670940e-03 -1.000269e+02 0
2.670940e-03 -5.000000e+01 0
0.000000e+00 0.000000e+00 0
0.000000e+00 0.000000e+00 0
0.000000e+00 0.000000e+00 0
0.000000e+00 0.000000e+00 0
0.000000e+00 0.000000e+00 0
0.000000e+00 0.000000e+00 0
0.000000e+00 0.000000e+00 0
0.000000e+00 0.000000e+00 0
0.000000e+00 0.000000e+00 0
0.000000e+00 0.000000e+00 0
0.000000e+00 0.000000e+00 0
0.000000e+00 0.000000e+00 0
0.000000e+00 0.000000e+00 0
0.000000e+00 0.000000e+00 0
0.000000e+00 -5.000000e+01 0
0.000000e+00 -1.000186e+02 0
-8.113085e-03 -1.000401e+02 0
-7.660637e-03 -1.000475e+02 0
-1.128162e-02 -1.000261e+02 0
-1.128162e-02 -5.000000e+01 0
0.000000e+00 0.000000e+00 0
0.000000e+00 0.000000e+00 0
0.000000e+00 0.000000e+00 0
0.000000e+00 0.000000e+00 0
0.000000e+00 0.000000e+00 0
0.000000e+00 0.000000e+00 0
0.000000e+00 0.000000e+00 0
0.000000e+00 0.000000e+00 0
0.000000e+00 0.000000e+00 0
0.000000e+00 0.000000e+00 0
0.000000e+00 0.000000e+00 0
0.000000e+00 0.000000e+00 0
0.000000e+00 0.000000e+00 0
0.000000e+00 0.000000e+00 0
0.000000e+00 -5.000000e+01 0
0.000000e+00 -1.000157e+02 0
-6.997187e-03 -1.000358e+02 0
-1.128711e-02 -1.000433e+02 0
-1.794097e-02 -1.000232e+02 0
-1.794097e-02 -5.000000e+01 0
0.000000e+00 0.000000e+00 0
0.000000e+00 0.000000e+00 0
0.000000e+00 0.000000e+00 0
0.000000e+00 0.000000e+00 0
0.000000e+00 0.000000e+00 0
0.000000e+00 0.000000e+00 0
0.000000e+00 0.000000e+00 0
0.000000e+00 0.000000e+00 0
0.000000e+00 0.000000e+00 0
0.000000e+00 0.000000e+00 0
0.000000e+00 0.000000e+00 0
0.000000e+00 0.000000e+00 0
0.000000e+00 0.000000e+00 0
0.000000e+00 0.000000e+00 0
0.000000e+00 -5.000000e+01 0
0.000000e+00 -1.000124e+02 0
-5.784673e-03 -1.000295e+02 0
-1.246019e-02 -1.000365e+02 0
-2.062872e-02 -1.000194e+02 0
-2.062872e-02 -5.000000e+01 0
0.000000e+00 0.000000e+00 0
0.000000e+00 0.000000e+00 0
0.000000e+00 0.000000e+00 0
0.000000e+00 0.000000e+00 0
0.000000e+00 0.000000e+00 0
0.000000e+00 0.000000e+00 0
0.000000e+00 0.000000e+00 0
0.000000e+00 0.000000e+00 0
0.000000e+00 0.000000e+00 0
0.000000e+00 0.000000e+00 0
0.000000e+00 0.000000e+00 0
0.000000e+00 0.000000e+00 0
0.000000e+00 0.000000e+00 0
0.000000e+00 0.000000e+00 0
0.000000e+00 -5.000000e+01 0
0.000000e+00 -1.000092e+02 0
-4.320010e-03 -1.000225e+02 0
-1.204150e-02 -1.000284e+02 0
-2.085995e-02 -1.000150e+02 0
-2.085995e-02 -5.000000e+01 0
0.000000e+00 0.000000e+00 0
0.000000e+00 0.000000e+00 0
0.000000e+00 0.000000e+00 0
0.000000e+00 0.000000e+00 0
0.000000e+00 0.000000e+00 0
0.000000e+00 0.000000e+00 0
0.000000e+00 0.000000e+00 0
0.000000e+00 0.000000e+00 0
0.000000e+00 0.000000e+00 0
0.000000e+00 0.000000e+00 0
0.000000e+00 0.000000e+00 0
0.000000e+00 0.000000e+00 0
0.000000e+00 0.000000e+00 0
0.000000e+00 0.000000e+00 0
0.000000e+00 -5.000000e+01 0
0.000000e+00 -1.000062e+02 0
-2.507225e-03 -1.000155e+02 0
-1.040486e-02 -1.000198e+02 0
-1.926379e-02 -1.000105e+02 0
-1.926379e-02 -5.000000e+01 0
0.000000e+00 0.000000e+00 0
0.000000e+00 0.000000e+00 0
0.000000e+00 0.000000e+00 0
0.000000e+00 0.000000e+00 0
0.000000e+00 0.000000e+00 0
0.000000e+00 0.000000e+00 0
0.000000e+00 0.000000e+00 0
0.000000e+00 0.000000e+00 0
0.000000e+00 0.000000e+00 0
0.000000e+00 0.000000e+00 0
0.000000e+00 0.000000e+00 0
0.000000e+00 0.000000e+00 0
0.000000e+00 0.000000e+00 0
0.000000e+00 0.000000e+00 0
0.000000e+00 -5.000000e+01 0
0.000000e+00 -1.000037e+02 0
-4.281163e-04 -1.000091e+02 0
-7.711463e-03 -1.000115e+02 0
-1.589845e-02 -1.000061e+02 0
-1.589845e-02 -5.000000e+01 0
0.000000e+00 0.000000e+00 0
0.000000e+00 0.000000e+00 0
0.000000e+00 0.000000e+00 0
0.000000e+00 0.000000e+00 0
0.000000e+00 0.000000e+00 0
0.000000e+00 0.000000e+00 0
0.000000e+00 0.000000e+00 0
0.000000e+00 0.000000e+00 0
0.000000e+00 0.000000e+00 0
0.000000e+00 0.000000e+00 0
0.000000e+00 0.000000e+00 0
0.000000e+00 0.000000e+00 0
0.000000e+00 0.000000e+00 0
0.000000e+00 0.000000e+00 0
0.000000e+00 -5.000000e+01 0
0.000000e+00 -1.000018e+02 0
1.218318e-03 -1.000038e+02 0
-4.140502e-03 -1.000042e+02 0
-1.018193e-02 -1.000022e+02 0
-1.018193e-02 -5.000000e+01 0
0.000000e+00 0.000000e+00 0
0.000000e+00 0.000000e+00 0
0.000000e+00 0.000000e+00 0
0.000000e+00 0.000000e+00 0
0.000000e+00 0.000000e+00 0
0.000000e+00 0.000000e+00 0
0.000000e+00 0.000000e+00 0
0.000000e+00 0.000000e+00 0
0.000000e+00 0.000000e+00 0
0.000000e+00 0.000000e+00 0
0.000000e+00 0.000000e+00 0
0.000000e+00 0.000000e+00 0
0.000000e+00 0.000000e+00 0
0.000000e+00 0.000000e+00 0
0.000000e+00 -5.000000e+01 0
0.000000e+00 -1.000000e+02 0
7.435255e-18 -1.000000e+02 0
-9.104394e-18 -1.000000e+02 0
-2.701463e-17 -1.000000e+02 0
-2.731318e-17 -5.000000e+01 0
0.000000e+00 0.000000e+00 0
0.000000e+00 0.000000e+00 0
0.000000e+00 0.000000e+00 0
0.000000e+00 0.000000e+00 0
0.000000e+00 0.000000e+00 0
0.000000e+00 0.000000e+00 0
0.000000e+00 0.000000e+00 0
</DataArray>
<DataArray Name="Type and Neighbourhood" type="Float64" format="ascii" NumberOfComponents="3">
0.000000e+00 0.000000e+00 0
0.000000e+00 0.000000e+00 0
0.000000e+00 0.000000e+00 0
0.000000e+00 0.000000e+00 0
0.000000e+00 0.000000e+00 0
0.000000e+00 0.000000e+00 0
0.000000e+00 0.000000e+00 0
0.000000e+00 0.000000e+00 0
0.000000e+00 0.000000e+00 0
0.000000e+00 0.000000e+00 0