<?xml version="1.0"?>
<VTKFile type="StructuredGrid">
<StructuredGrid WholeExtent="0 19 0 33 0 0 ">
<Piece Extent="0 19 0 33 0 0 ">
<Points>
<DataArray type="Float64" format="ascii" NumberOfComponents="3">
0.000000e+00 0.000000e+00 0.000000e+00
1.052632e-01 0.000000e+00 0.000000e+00
2.105263e-01 0.000000e+00 0.000000e+00
3.157895e-01 0.000000e+00 0.000000e+00
4.210526e-01 0.000000e+00 0.000000e+00
5.263158e-01 0.000000e+00 0.000000e+00
6.315789e-01 0.000000e+00 0.000000e+00
7.368421e-01 0.000000e+00 0.000000e+00
8.421053e-01 0.000000e+00 0.000000e+00
9.473684e-01 0.000000e+00 0.000000e+00
1.052632e+00 0.000000e+00 0.000000e+00
1.157895e+00 0.000000e+00 0.000000e+00
1.263158e+00 0.000000e+00 0.000000e+00
1.368421e+00 0.000000e+00 0.000000e+00
1.473684e+00 0.000000e+00 0.000000e+00
1.578947e+00 0.000000e+00 0.000000e+00
1.684211e+00 0.000000e+00 0.000000e+00
1.789474e+00 0.000000e+00 0.000000e+00
1.894737e+00 0.000000e+00 0.000000e+00
2.000000e+00 0.000000e+00 0.000000e+00
0.000000e+00 1.060606e-01 0.000000e+00
1.052632e-01 1.060606e-01 0.000000e+00
2.105263e-01 1.060606e-01 0.000000e+00
3.157895e-01 1.060606e-01 0.000000e+00
4.210526e-01 1.060606e-01 0.000000e+00
5.263158e-01 1.060606e-01 0.000000e+00
6.315789e-01 1.060606e-01 0.000000e+00
7.368421e-01 1.060606e-01 0.000000e+00
8.421053e-01 1.060606e-01 0.000000e+00
9.473684e-01 1.060606e-01 0.000000e+00
1.052632e+00 1.060606e-01 0.000000e+00
1.157895e+00 1.060606e-01 0.000000e+00
1.263158e+00 1.060606e-01 0.000000e+00
1.368421e+00 1.060606e-01 0.000000e+00
1.473684e+00 1.060606e-01 0.000000e+00
1.578947e+00 1.060606e-01 0.000000e+00
1.684211e+00 1.060606e-01 0.000000e+00
1.789474e+00 1.060606e-01 0.000000e+00
1.894737e+00 1.060606e-01 0.000000e+00
2.000000e+00 1.060606e-01 0.000000e+00
0.000000e+00 2.121212e-01 0.000000e+00
1.052632e-01 2.121212e-01 0.000000e+00
2.105263e-01 2.121212e-01 0.000000e+00
3.157895e-01 2.121212e-01 0.000000e+00
4.210526e-01 2.121212e-01 0.000000e+00
5.263158e-01 2.121212e-01 0.000000e+00
6.315789e-01 2.121212e-01 0.000000e+00
7.368421e-01 2.121212e-01 0.000000e+00
8.421053e-01 2.121212e-01 0.000000e+00
9.473684e-01 2.121212e-01 0.000000e+00
1.052632e+00 2.121212e-01 0.000000e+00
1.157895e+00 2.121212e-01 0.000000e+00
1.263158e+00 2.121212e-01 0.000000e+00
1.368421e+00 2.121212e-01 0.000000e+00
1.473684e+00 2.121212e-01 0.000000e+00
1.578947e+00 2.121212e-01 0.000000e+00
1.684211e+00 2.121212e-01 0.000000e+00
1.789474e+00 2.121212e-01 0.000000e+00
1.894737e+00 2.121212e-01 0.000000e+00
2.000000e+00 2.121212e-01 0.000000e+00
0.000000e+00 3.181818e-01 0.000000e+00
1.052632e-01 3.181818e-01 0.000000e+00
2.105263e-01 3.181818e-01 0.000000e+00
3.157895e-01 3.181818e-01 0.000000e+00
4.210526e-01 3.181818e-01 0.000000e+00
5.263158e-01 3.181818e-01 0.000000e+00
6.315789e-01 3.181818e-01 0.000000e+00
7.368421e-01 3.181818e-01 0.000000e+00
8.421053e-01 3.181818e-01 0.000000e+00
9.473684e-01 3.181818e-01 0.000000e+00
1.052632e+00 3.181818e-01 0.000000e+00
1.157895e+00 3.181818e-01 0.000000e+00
1.263158e+00 3.181818e-01 0.000000e+00
1.368421e+00 3.181818e-01 0.000000e+00
1.473684e+00 3.181818e-01 0.000000e+00
1.578947e+00 3.181818e-01 0.000000e+00
1.684211e+00 3.181818e-01 0.000000e+00
1.789474e+00 3.181818e-01 0.000000e+00
1.894737e+00 3.181818e-01 0.000000e+00
2.000000e+00 3.181818e-01 0.000000e+00
0.000000e+00 4.242424e-01 0.000000e+00
1.052632e-01 4.242424e-01 0.000000e+00
2.105263e-01 4.242424e-01 0.000000e+00
3.157895e-01 4.242424e-01 0.000000e+00
4.210526e-01 4.242424e-01 0.000000e+00
5.263158e-01 4.242424e-01 0.000000e+00
6.315789e-01 4.242424e-01 0.000000e+00
7.368421e-01 4.242424e-01 0.000000e+00
8.421053e-01 4.242424e-01 0.000000e+00
9.473684e-01 4.242424e-01 0.000000e+00
1.052632e+00 4.242424e-01 0.000000e+00
1.157895e+00 4.242424e-01 0.000000e+00
1.263158e+00 4.242424e-01 0.000000e+00
1.368421e+00 4.242424e-01 0.000000e+00
1.473684e+00 4.242424e-01 0.000000e+00
1.578947e+00 4.242424e-01 0.000000e+00
1.684211e+00 4.242424e-01 0.000000e+00
1.789474e+00 4.242424e-01 0.000000e+00
1.894737e+00 4.242424e-01 0.000000e+00
2.000000e+00 4.242424e-01 0.000000e+00
0.000000e+00 5.303030e-01 0.000000e+00
1.052632e-01 5.303030e-01 0.000000e+00
2.105263e-01 5.303030e-01 0.000000e+00
3.157895e-01 5.303030e-01 0.000000e+00
4.210526e-01 5.303030e-01 0.000000e+00
5.263158e-01 5.303030e-01 0.000000e+00
6.315789e-01 5.303030e-01 0.000000e+00
7.368421e-01 5.303030e-01 0.000000e+00
8.421053e-01 5.303030e-01 0.000000e+00
9.473684e-01 5.303030e-01 0.000000e+00
1.052632e+00 5.303030e-01 0.000000e+00
1.157895e+00 5.303030e-01 0.000000e+00
1.263158e+00 5.303030e-01 0.000000e+00
1.368421e+00 5.303030e-01 0.000000e+00
1.473684e+00 5.303030e-01 0.000000e+00
1.578947e+00 5.303030e-01 0.000000e+00
1.684211e+00 5.303030e-01 0.000000e+00
1.789474e+00 5.303030e-01 0.000000e+00
1.894737e+00 5.303030e-01 0.000000e+00
2.000000e+00 5.303030e-01 0.000000e+00
0.000000e+00 6.363636e-01 0.000000e+00
1.052632e-01 6.363636e-01 0.000000e+00
2.105263e-01 6.363636e-01 0.000000e+00
3.157895e-01 6.363636e-01 0.000000e+00
4.210526e-01 6.363636e-01 0.000000e+00
5.263158e-01 6.363636e-01 0.000000e+00
6.315789e-01 6.363636e-01 0.000000e+00
7.368421e-01 6.363636e-01 0.000000e+00
8.421053e-01 6.363636e-01 0.000000e+00
9.473684e-01 6.363636e-01 0.000000e+00
1.052632e+00 6.363636e-01 0.000000e+00
1.157895e+00 6.363636e-01 0.000000e+00
1.263158e+00 6.363636e-01 0.000000e+00
1.368421e+00 6.363636e-01 0.000000e+00
1.473684e+00 6.363636e-01 0.000000e+00
1.578947e+00 6.363636e-01 0.000000e+00
1.684211e+00 6.363636e-01 0.000000e+00
1.789474e+00 6.363636e-01 0.000000e+00
1.894737e+00 6.363636e-01 0.000000e+00
2.000000e+00 6.363636e-01 0.000000e+00
0.000000e+00 7.424242e-01 0.000000e+00
1.052632e-01 7.424242e-01 0.000000e+00
2.105263e-01 7.424242e-01 0.000000e+00
3.157895e-01 7.424242e-01 0.000000e+00
4.210526e-01 7.424242e-01 0.000000e+00
5.263158e-01 7.424242e-01 0.000000e+00
6.315789e-01 7.424242e-01 0.000000e+00
7.368421e-01 7.424242e-01 0.000000e+00
8.421053e-01 7.424242e-01 0.000000e+00
9.473684e-01 7.424242e-01 0.000000e+00
1.052632e+00 7.424242e-01 0.000000e+00
1.157895e+00 7.424242e-01 0.000000e+00
1.263158e+00 7.424242e-01 0.000000e+00
1.368421e+00 7.424242e-01 0.000000e+00
1.473684e+00 7.424242e-01 0.000000e+00
1.578947e+00 7.424242e-01 0.000000e+00
1.684211e+00 7.424242e-01 0.000000e+00
1.789474e+00 7.424242e-01 0.000000e+00
1.894737e+00 7.424242e-01 0.000000e+00
2.000000e+00 7.424242e-01 0.000000e+00
0.000000e+00 8.484848e-01 0.000000e+00
1.052632e-01 8.484848e-01 0.000000e+00
2.105263e-01 8.484848e-01 0.000000e+00
3.157895e-01 8.484848e-01 0.000000e+00
4.210526e-01 8.484848e-01 0.000000e+00
5.263158e-01 8.484848e-01 0.000000e+00
6.315789e-01 8.484848e-01 0.000000e+00
7.368421e-01 8.484848e-01 0.000000e+00
8.421053e-01 8.484848e-01 0.000000e+00
9.473684e-01 8.484848e-01 0.000000e+00
1.052632e+00 8.484848e-01 0.000000e+00
1.157895e+00 8.484848e-01 0.000000e+00
1.263158e+00 8.484848e-01 0.000000e+00
1.368421e+00 8.484848e-01 0.000000e+00
1.473684e+00 8.484848e-01 0.000000e+00
1.578947e+00 8.484848e-01 0.000000e+00
1.684211e+00 8.484848e-01 0.000000e+00
1.789474e+00 8.484848e-01 0.000000e+00
1.894737e+00 8.484848e-01 0.000000e+00
2.000000e+00 8.484848e-01 0.000000e+00
0.000000e+00 9.545455e-01 0.000000e+00
1.052632e-01 9.545455e-01 0.000000e+00
2.105263e-01 9.545455e-01 0.000000e+00
3.157895e-01 9.545455e-01 0.000000e+00
4.210526e-01 9.545455e-01 0.000000e+00
5.263158e-01 9.545455e-01 0.000000e+00
6.315789e-01 9.545455e-01 0.000000e+00
7.368421e-01 9.545455e-01 0.000000e+00
8.421053e-01 9.545455e-01 0.000000e+00
9.473684e-01 9.545455e-01 0.000000e+00
1.052632e+00 9.545455e-01 0.000000e+00
1.157895e+00 9.545455e-01 0.000000e+00
1.263158e+00 9.545455e-01 0.000000e+00
1.368421e+00 9.545455e-01 0.000000e+00
1.473684e+00 9.545455e-01 0.000000e+00
1.578947e+00 9.545455e-01 0.000000e+00
1.684211e+00 9.545455e-01 0.000000e+00
1.789474e+00 9.545455e-01 0.000000e+00
1.894737e+00 9.545455e-01 0.000000e+00
2.000000e+00 9.545455e-01 0.000000e+00
0.000000e+00 1.060606e+00 0.000000e+00
1.052632e-01 1.060606e+00 0.000000e+00
2.105263e-01 1.060606e+00 0.000000e+00
3.157895e-01 1.060606e+00 0.000000e+00
4.210526e-01 1.060606e+00 0.000000e+00
5.263158e-01 1.060606e+00 0.000000e+00
6.315789e-01 1.060606e+00 0.000000e+00
7.368421e-01 1.060606e+00 0.000000e+00
8.421053e-01 1.060606e+00 0.000000e+00
9.473684e-01 1.060606e+00 0.000000e+00
1.052632e+00 1.060606e+00 0.000000e+00
1.157895e+00 1.060606e+00 0.000000e+00
1.263158e+00 1.060606e+00 0.000000e+00
1.368421e+00 1.060606e+00 0.000000e+00
1.473684e+00 1.060606e+00 0.000000e+00
1.578947e+00 1.060606e+00 0.000000e+00
1.684211e+00 1.060606e+00 0.000000e+00
1.789474e+00 1.060606e+00 0.000000e+00
1.894737e+00 1.060606e+00 0.000000e+00
2.000000e+00 1.060606e+00 0.000000e+00
0.000000e+00 1.166667e+00 0.000000e+00
1.052632e-01 1.166667e+00 0.000000e+00
2.105263e-01 1.166667e+00 0.000000e+00
3.157895e-01 1.166667e+00 0.000000e+00
4.210526e-01 1.166667e+00 0.000000e+00
5.263158e-01 1.166667e+00 0.000000e+00
6.315789e-01 1.166667e+00 0.000000e+00
7.368421e-01 1.166667e+00 0.000000e+00
8.421053e-01 1.166667e+00 0.000000e+00
9.473684e-01 1.166667e+00 0.000000e+00
1.052632e+00 1.166667e+00 0.000000e+00
1.157895e+00 1.166667e+00 0.000000e+00
1.263158e+00 1.166667e+00 0.000000e+00
1.368421e+00 1.166667e+00 0.000000e+00
1.473684e+00 1.166667e+00 0.000000e+00
1.578947e+00 1.166667e+00 0.000000e+00
1.684211e+00 1.166667e+00 0.000000e+00
1.789474e+00 1.166667e+00 0.000000e+00
1.894737e+00 1.166667e+00 0.000000e+00
2.000000e+00 1.166667e+00 0.000000e+00
0.000000e+00 1.272727e+00 0.000000e+00
1.052632e-01 1.272727e+00 0.000000e+00
2.105263e-01 1.272727e+00 0.000000e+00
3.157895e-01 1.272727e+00 0.000000e+00
4.210526e-01 1.272727e+00 0.000000e+00
5.263158e-01 1.272727e+00 0.000000e+00
6.315789e-01 1.272727e+00 0.000000e+00
7.368421e-01 1.272727e+00 0.000000e+00
8.421053e-01 1.272727e+00 0.000000e+00
9.473684e-01 1.272727e+00 0.000000e+00
1.052632e+00 1.272727e+00 0.000000e+00
[...]
<PointData>
<DataArray Name="Velocity" type="Float64" format="ascii" NumberOfComponents="3">
0.000000e+00 0.000000e+00 0
0.000000e+00 0.000000e+00 0
0.000000e+00 0.000000e+00 0
0.000000e+00 0.000000e+00 0
0.000000e+00 0.000000e+00 0
0.000000e+00 0.000000e+00 0
0.000000e+00 0.000000e+00 0
0.000000e+00 0.000000e+00 0
0.000000e+00 0.000000e+00 0
0.000000e+00 0.000000e+00 0
0.000000e+00 0.000000e+00 0
1.375506e-15 0.000000e+00 0
0.000000e+00 0.000000e+00 0
0.000000e+00 0.000000e+00 0
0.000000e+00 0.000000e+00 0
-6.583114e-16 0.000000e+00 0
0.000000e+00 0.000000e+00 0
1.509251e+00 0.000000e+00 0
8.922901e+00 0.000000e+00 0
0.000000e+00 0.000000e+00 0
0.000000e+00 0.000000e+00 0
-2.273086e+01 2.293740e+01 0
-4.090522e+01 1.686580e+01 0
-5.373250e+01 1.042422e+01 0
-6.055554e+01 3.481017e+00 0
-6.070831e+01 -4.266031e+00 0
-5.318955e+01 -1.328620e+01 0
-3.667406e+01 -2.310661e+01 0
-1.180747e+01 -3.042220e+01 0
1.511451e+01 -2.756896e+01 0
3.622419e+01 -2.269115e+01 0
5.880954e+01 -1.945204e+01 0
7.332412e+01 -1.162170e+01 0
8.007065e+01 -3.634782e+00 0
7.945166e+01 2.910330e+00 0
7.363901e+01 6.981244e+00 0
6.489259e+01 1.205616e+01 0
5.454503e+01 6.350693e+00 0
1.784580e+01 -1.583167e+00 0
0.000000e+00 0.000000e+00 0
0.000000e+00 0.000000e+00 0
-1.738035e+01 4.121510e+01 0
-3.218575e+01 3.123650e+01 0
-4.306655e+01 1.979919e+01 0
-4.926919e+01 7.028650e+00 0
-5.013612e+01 -7.421796e+00 0
-4.502280e+01 -2.421632e+01 0
-3.194252e+01 -4.169558e+01 0
-1.267715e+01 -5.218091e+01 0
5.667856e+00 -4.839554e+01 0
2.425825e+01 -4.402606e+01 0
4.511580e+01 -3.738099e+01 0
5.560948e+01 -2.142217e+01 0
6.461946e+01 -6.173968e+00 0
6.225047e+01 6.480362e+00 0
5.468273e+01 1.466937e+01 0
4.497114e+01 1.858518e+01 0
3.643383e+01 2.440538e+01 0
1.529250e+01 3.191279e+01 0
0.000000e+00 -7.209709e-14 0
0.000000e+00 0.000000e+00 0
-1.291268e+01 5.536698e+01 0
-2.416243e+01 4.274660e+01 0
-3.238268e+01 2.763707e+01 0
-3.703084e+01 1.060414e+01 0
-3.832804e+01 -8.544583e+00 0
-3.769728e+01 -3.161763e+01 0
-2.887470e+01 -5.569730e+01 0
-1.446037e+01 -6.831750e+01 0
-1.095386e+00 -6.478417e+01 0
1.357569e+01 -6.243794e+01 0
2.940644e+01 -5.104078e+01 0
3.598210e+01 -3.127312e+01 0
2.923708e+01 -1.032608e+01 0
2.712976e+01 1.336514e+01 0
4.559717e+01 2.483427e+01 0
3.753518e+01 2.978985e+01 0
2.261033e+01 3.344978e+01 0
1.136715e+01 3.746484e+01 0
0.000000e+00 -8.452762e-14 0
0.000000e+00 0.000000e+00 0
-9.015736e+00 6.556058e+01 0
-1.678221e+01 5.085400e+01 0
-2.177685e+01 3.276509e+01 0
-2.301100e+01 1.301905e+01 0
-1.937956e+01 -6.750308e+00 0
-2.801146e+01 -3.374128e+01 0
-2.535255e+01 -6.510852e+01 0
-1.535924e+01 -8.017068e+01 0
-5.669023e+00 -7.664400e+01 0
3.556089e+00 -7.475896e+01 0
1.014655e+01 -5.995714e+01 0
2.319729e+01 -2.125153e+01 0
8.967266e+00 -1.517588e-03 0
-4.875103e+01 1.847172e+01 0
3.507097e+00 3.651626e+01 0
2.559790e+01 4.285494e+01 0
1.610516e+01 4.862072e+01 0
9.579504e+00 4.874317e+01 0
0.000000e+00 -1.044165e-13 0
0.000000e+00 0.000000e+00 0
-5.840536e+00 7.227633e+01 0
-1.074150e+01 5.560439e+01 0
-1.321351e+01 3.391305e+01 0
-1.176439e+01 8.188683e+00 0
9.685746e-01 -3.506241e+00 0
-1.102426e+01 -2.596005e+01 0
-1.997497e+01 -6.880604e+01 0
-1.469892e+01 -8.815015e+01 0
-7.654734e+00 -8.384280e+01 0
-2.057710e+00 -7.837332e+01 0
2.571526e-01 -7.083077e+01 0
1.429529e+01 -3.388589e+01 0
3.442825e+01 3.812680e+01 0
-3.109329e+01 6.340854e+01 0
-8.906330e+00 1.581226e+01 0
5.307540e+01 1.820512e+01 0
2.255302e+01 4.958953e+01 0
1.162793e+01 5.369201e+01 0
0.000000e+00 -1.243053e-13 0
0.000000e+00 0.000000e+00 0
-3.476026e+00 7.638346e+01 0
-6.267000e+00 5.828283e+01 0
-7.127602e+00 3.379573e+01 0
-5.122235e+00 -1.270475e+00 0
3.338138e+00 -1.136848e+01 0
0.000000e+00 -2.424820e+01 0
-1.691912e+01 -7.006088e+01 0
-1.251134e+01 -9.350240e+01 0
-7.256729e+00 -8.938097e+01 0
-2.377505e+00 -8.273078e+01 0
2.275117e+00 -7.643403e+01 0
1.182451e+01 -5.948248e+01 0
3.800494e+01 3.162640e+00 0
3.060510e+01 5.736913e+01 0
5.349211e+01 -1.428825e+01 0
4.753193e+01 -9.262654e+00 0
1.335531e+01 6.996227e+01 0
8.754951e+00 7.146704e+01 0
0.000000e+00 -1.541386e-13 0
0.000000e+00 0.000000e+00 0
-1.809679e+00 7.859081e+01 0
-3.193685e+00 5.928363e+01 0
-3.249253e+00 3.275962e+01 0
-1.687445e-01 -2.356343e+00 0
-1.687445e-01 -1.136848e+01 0
0.000000e+00 -2.416800e+01 0
-1.322891e+01 -7.239423e+01 0
-8.900709e+00 -9.816258e+01 0
-5.633369e+00 -9.405340e+01 0
-1.447444e+00 -8.797738e+01 0
3.045903e+00 -8.514037e+01 0
9.009896e+00 -6.988639e+01 0
3.080868e+00 -2.070799e+00 0
2.673006e+01 2.652931e+01 0
6.049425e+01 -6.230200e-03 0
3.292895e+01 -3.914506e+01 0
-5.430637e+00 -8.685297e+00 0
2.997280e+00 6.883056e+01 0
0.000000e+00 -1.591108e-13 0
0.000000e+00 0.000000e+00 0
-5.999057e-01 7.960134e+01 0
-1.100095e+00 5.973331e+01 0
-8.778039e-01 3.074787e+01 0
1.189372e+00 -4.374320e+00 0
9.936829e-01 -1.136848e+01 0
0.000000e+00 -1.050680e-03 0
-6.433655e+00 -4.915763e+01 0
-5.076688e+00 -1.001384e+02 0
-3.854632e+00 -9.689070e+01 0
-8.558813e-01 -9.147581e+01 0
2.097348e+00 -8.697059e+01 0
2.695801e+00 -5.951771e+01 0
-9.640250e+00 -1.469177e+01 0
2.083194e+01 -4.792003e-01 0
9.477300e+00 1.771099e+01 0
3.292895e+01 1.679904e+01 0
2.275023e+00 2.480166e+01 0
2.379703e+00 6.928395e+01 0
0.000000e+00 -1.591108e-13 0
0.000000e+00 0.000000e+00 0
1.084868e-01 7.969923e+01 0
4.787551e-01 5.956364e+01 0
1.206534e+00 3.045281e+01 0
1.270905e+00 6.929301e+00 0
0.000000e+00 0.000000e+00 0
0.000000e+00 -1.050680e-03 0
-4.112098e+00 -4.868202e+01 0
-2.826649e+00 -9.984862e+01 0
-2.554572e+00 -9.830618e+01 0
-4.654183e-01 -9.397445e+01 0
1.724733e+00 -8.871896e+01 0
2.799398e+00 -5.805987e+01 0
-7.302456e-01 -2.137660e+01 0
1.020449e+01 6.234658e+00 0
1.927921e+01 1.143443e+01 0
4.372301e+00 1.763363e+01 0
1.860267e+00 4.930603e+01 0
7.086129e-01 7.244093e+01 0
0.000000e+00 -1.789997e-13 0
0.000000e+00 0.000000e+00 0
3.068823e-01 7.911895e+01 0
1.975830e+00 5.862694e+01 0
6.574677e+00 2.994972e+01 0
6.574677e+00 6.929301e+00 0
0.000000e+00 0.000000e+00 0
0.000000e+00 -1.050680e-03 0
-5.621871e+00 -4.896315e+01 0
-2.037877e+00 -1.002181e+02 0
-1.747344e+00 -9.926982e+01 0
-3.139327e-01 -9.578753e+01 0
9.881740e-01 -9.026014e+01 0
3.067067e+00 -6.450719e+01 0
2.716026e+00 -3.064828e+01 0
-2.443143e+00 -2.167251e+01 0
2.745057e+01 4.669259e+01 0
4.372301e+00 8.110379e+01 0
-5.698772e+00 5.185320e+01 0
-1.881212e+00 7.086980e+01 0
0.000000e+00 -1.690552e-13 0
0.000000e+00 0.000000e+00 0
-4.101926e-01 7.770844e+01 0
6.817590e-01 5.324836e+01 0
1.876537e+00 2.581912e+01 0
1.876537e+00 6.929301e+00 0
0.000000e+00 0.000000e+00 0
0.000000e+00 -1.050680e-03 0
-3.271332e+00 -5.037240e+01 0
-9.121192e-01 -1.018317e+02 0
-1.027568e+00 -1.000432e+02 0
-5.756508e-02 -9.673069e+01 0
9.651879e-01 -9.168366e+01 0
4.832154e+00 -6.682195e+01 0
2.662133e+00 -2.328771e+01 0
7.867016e-01 -1.517588e-03 0
-9.548825e+00 1.345503e-13 0
-2.039288e+00 2.637261e+01 0
-8.421470e+00 5.407466e+01 0
-3.056197e+00 6.657511e+01 0
0.000000e+00 -1.690552e-13 0
0.000000e+00 0.000000e+00 0
-1.554291e+00 7.843203e+01 0
-3.320718e+00 5.632289e+01 0
-6.225487e+00 2.874589e+01 0
-3.622924e+00 6.929301e+00 0
0.000000e+00 0.000000e+00 0
0.000000e+00 0.000000e+00 0
0.000000e+00 -5.000000e+01 0
0.000000e+00 -1.012292e+02 0
-5.520069e-01 -1.002204e+02 0
2.091023e-01 -9.779539e+01 0
1.519370e+00 -9.474498e+01 0
6.040153e+00 -6.253444e+01 0
-3.471146e-01 -3.987107e+01 0
-1.037330e+01 -1.117998e+01 0
-9.548825e+00 6.426858e+01 0
-2.039288e+00 7.895220e+01 0
-2.375475e+00 5.173824e+01 0
-1.974532e+00 6.226066e+01 0
0.000000e+00 -1.591108e-13 0
0.000000e+00 0.000000e+00 0
-1.763903e+00 8.105431e+01 0
-5.990082e+00 5.795494e+01 0
-2.602563e+00 2.181659e+01 0
0.000000e+00 0.000000e+00 0
0.000000e+00 0.000000e+00 0
0.000000e+00 0.000000e+00 0
0.000000e+00 -5.000000e+01 0
0.000000e+00 -1.011017e+02 0
-5.179304e-01 -1.004514e+02 0
3.407890e-02 -9.881776e+01 0
1.010888e+00 -9.755888e+01 0
3.250293e+00 -6.170069e+01 0
-5.779949e+00 -2.004880e+01 0
-3.407108e+01 -6.438899e+00 0
-1.052476e+01 1.753198e-14 0
8.661978e+00 2.916128e+01 0
5.305077e+00 5.520601e+01 0
-1.616867e+00 6.292831e+01 0
0.000000e+00 -1.541386e-13 0
0.000000e+00 0.000000e+00 0
-1.689793e+00 8.446749e+01 0
-4.619684e+00 3.876449e+01 0
0.000000e+00 0.000000e+00 0
0.000000e+00 0.000000e+00 0
0.000000e+00 0.000000e+00 0
0.000000e+00 0.000000e+00 0
0.000000e+00 -5.000000e+01 0
0.000000e+00 -1.009504e+02 0
-6.801894e-01 -1.004978e+02 0
-4.718790e-01 -9.933579e+01 0
-1.783677e-01 -9.798556e+01 0
-6.373057e-01 -5.569216e+01 0
-1.127931e+01 -2.266957e+00 0
-1.731270e+01 1.132084e+01 0
-2.073037e+01 8.374230e+00 0
8.661978e+00 3.214816e+01 0
1.743149e+01 6.054495e+01 0
-2.052909e+00 6.635259e+01 0
0.000000e+00 -1.491664e-13 0
0.000000e+00 0.000000e+00 0
-2.147302e+00 8.570899e+01 0
-1.561120e+00 3.909043e+01 0
-3.289552e-01 9.797302e-14 0
0.000000e+00 0.000000e+00 0
0.000000e+00 0.000000e+00 0
0.000000e+00 0.000000e+00 0
0.000000e+00 -5.000000e+01 0
0.000000e+00 -1.007253e+02 0
-8.943213e-01 -1.002849e+02 0
-1.024618e+00 -9.932338e+01 0
-1.381886e+00 -9.739220e+01 0
-2.171613e+00 -5.051565e+01 0
-9.622176e+00 -2.887274e+00 0
-4.076369e+00 1.226850e+01 0
-1.020561e+01 1.226850e+01 0
0.000000e+00 3.081745e+01 0
-1.849777e+00 7.024744e+01 0
1.155011e+00 7.424510e+01 0
0.000000e+00 -1.441942e-13 0
0.000000e+00 0.000000e+00 0
-1.336168e+00 8.594812e+01 0
1.164672e+00 8.487880e+01 0
1.164672e+00 4.679725e+01 0
0.000000e+00 0.000000e+00 0
0.000000e+00 0.000000e+00 0
0.000000e+00 0.000000e+00 0
0.000000e+00 -5.000000e+01 0
0.000000e+00 -1.004371e+02 0
-1.014112e+00 -9.985319e+01 0
-1.333569e+00 -9.884453e+01 0
-2.133379e+00 -9.682988e+01 0
-2.421732e+00 -4.727165e+01 0
-9.663367e+00 1.259623e+01 0
2.087809e+00 1.246640e+01 0
-8.270280e-15 0.000000e+00 0
-3.920635e+00 3.081745e+01 0
-1.980337e+01 5.210204e+01 0
1.296259e+01 5.812274e+01 0
0.000000e+00 -1.541386e-13 0
0.000000e+00 0.000000e+00 0
-9.753708e-02 8.444317e+01 0
3.337810e-01 8.327558e+01 0
3.337810e-01 4.679725e+01 0
0.000000e+00 0.000000e+00 0
0.000000e+00 0.000000e+00 0
0.000000e+00 0.000000e+00 0
0.000000e+00 -5.000000e+01 0
0.000000e+00 -1.001556e+02 0
-9.236605e-01 -9.939325e+01 0
-1.110071e+00 -9.819564e+01 0
-1.645789e+00 -9.629580e+01 0
-1.182464e+00 -4.281082e+01 0
-1.134085e+01 5.153218e+00 0
-6.842531e+00 6.261998e-01 0
2.101633e+01 3.081595e+01 0
-3.920635e+00 6.163340e+01 0
-3.920635e+00 4.335421e+01 0
1.486015e+01 6.041267e+01 0
0.000000e+00 -1.988885e-13 0
0.000000e+00 1.971689e-01 0
0.000000e+00 8.937831e+01 0
-5.222351e+00 8.821072e+01 0
-5.222351e+00 4.679725e+01 0
0.000000e+00 0.000000e+00 0
0.000000e+00 0.000000e+00 0
0.000000e+00 0.000000e+00 0
0.000000e+00 -5.000000e+01 0
0.000000e+00 -9.997488e+01 0
-6.606348e-01 -9.920319e+01 0
-4.856287e-01 -9.811693e+01 0
-1.223725e-01 -9.675694e+01 0
1.459023e+00 -3.750313e+01 0
-3.564675e+00 1.828861e+01 0
-1.434703e+01 4.458593e+00 0
2.101633e+01 -3.464836e+00 0
0.000000e+00 0.000000e+00 0
0.000000e+00 3.628286e+00 0
-6.763646e-01 5.879916e+01 0
0.000000e+00 -2.287218e-13 0
0.000000e+00 0.000000e+00 0
0.000000e+00 6.013606e+01 0
-1.664088e+01 1.069333e+02 0
-4.062505e+00 4.679725e+01 0
0.000000e+00 0.000000e+00 0
0.000000e+00 0.000000e+00 0
0.000000e+00 0.000000e+00 0
0.000000e+00 -5.000000e+01 0
0.000000e+00 -9.991475e+01 0
-4.083435e-01 -9.932876e+01 0
-4.238460e-02 -9.873798e+01 0
6.886870e-01 -9.825518e+01 0
1.801267e+00 -3.934244e+01 0
2.189180e+00 2.106844e+01 0
2.494388e+00 1.147967e+01 0
0.000000e+00 0.000000e+00 0
0.000000e+00 0.000000e+00 0
0.000000e+00 1.404702e+01 0
-6.297932e+00 6.633042e+01 0
0.000000e+00 -2.187774e-13 0
0.000000e+00 0.000000e+00 0
0.000000e+00 6.947715e+01 0
-1.808375e+01 6.947715e+01 0
0.000000e+00 0.000000e+00 0
0.000000e+00 0.000000e+00 0
0.000000e+00 0.000000e+00 0
0.000000e+00 0.000000e+00 0
0.000000e+00 -5.000000e+01 0
0.000000e+00 -9.990965e+01 0
-2.586844e-01 -9.950669e+01 0
2.673749e-02 -9.922227e+01 0
3.173750e-01 -9.861456e+01 0
-7.012624e-01 -4.898932e+01 0
0.000000e+00 1.147967e+01 0
2.089288e+01 1.147967e+01 0
1.705817e+01 0.000000e+00 0
0.000000e+00 0.000000e+00 0
1.682243e+00 1.690549e+01 0
-2.346755e+00 6.801496e+01 0
0.000000e+00 -2.187774e-13 0
0.000000e+00 0.000000e+00 0
-1.227447e+00 7.276233e+01 0
-1.202463e+01 7.276233e+01 0
0.000000e+00 0.000000e+00 0
0.000000e+00 0.000000e+00 0
0.000000e+00 0.000000e+00 0
0.000000e+00 0.000000e+00 0
0.000000e+00 -5.000000e+01 0
0.000000e+00 -9.991892e+01 0
-1.458603e-01 -9.962052e+01 0
8.968114e-02 -9.931840e+01 0
3.147996e-01 -9.824782e+01 0
-1.417820e-01 -4.863102e+01 0
0.000000e+00 4.369216e+01 0
1.765975e+01 4.369034e+01 0
2.187802e+01 -1.811914e-03 0
-6.108699e+00 1.404415e+01 0
9.389433e-01 3.397237e+01 0
-1.856634e+00 7.040235e+01 0
0.000000e+00 -2.088330e-13 0
0.000000e+00 0.000000e+00 0
-2.395195e+00 1.258923e+02 0
-1.623075e+01 7.809423e+01 0
0.000000e+00 0.000000e+00 0
0.000000e+00 0.000000e+00 0
0.000000e+00 0.000000e+00 0
0.000000e+00 0.000000e+00 0
0.000000e+00 -5.000000e+01 0
0.000000e+00 -9.995009e+01 0
-5.860093e-02 -9.978445e+01 0
1.624427e-01 -9.968642e+01 0
5.014542e-01 -9.910750e+01 0
1.387743e+00 -4.925544e+01 0
0.000000e+00 4.369216e+01 0
6.015777e-01 4.793742e+01 0
4.459894e+00 2.676732e+01 0
-6.195929e+00 3.017080e+01 0
-1.326280e+00 2.806339e+01 0
-2.714501e+00 6.965342e+01 0
0.000000e+00 -1.988885e-13 0
0.000000e+00 0.000000e+00 0
-1.645232e+00 1.353504e+02 0
-4.807823e+00 8.670270e+01 0
0.000000e+00 0.000000e+00 0
0.000000e+00 0.000000e+00 0
0.000000e+00 0.000000e+00 0
0.000000e+00 0.000000e+00 0
0.000000e+00 -5.000000e+01 0
0.000000e+00 -9.997938e+01 0
-2.305237e-02 -9.990369e+01 0
1.149230e-01 -9.988270e+01 0
2.586335e-01 -9.948241e+01 0
9.975971e-01 -4.952403e+01 0
0.000000e+00 0.000000e+00 0
0.000000e+00 -1.811914e-03 0
-7.974127e-01 2.116432e+01 0
4.476663e+00 2.931438e+01 0
1.072687e+00 2.947521e+01 0
-2.990053e+00 6.906602e+01 0
0.000000e+00 -1.988885e-13 0
0.000000e+00 0.000000e+00 0
-6.152561e-01 1.304095e+02 0
3.333045e+00 8.128078e+01 0
0.000000e+00 0.000000e+00 0
0.000000e+00 0.000000e+00 0
0.000000e+00 0.000000e+00 0
0.000000e+00 0.000000e+00 0
0.000000e+00 -5.000000e+01 0
0.000000e+00 -9.999820e+01 0
-1.212560e-02 -9.997159e+01 0
6.126127e-02 -9.997024e+01 0
1.154763e-01 -9.999686e+01 0
5.878725e-01 -5.000000e+01 0
0.000000e+00 0.000000e+00 0
-4.793506e+01 -1.811914e-03 0
-1.317819e+01 1.565581e+01 0
1.092317e+01 2.673613e+01 0
1.655667e+00 3.531770e+01 0
-4.355426e+00 7.046526e+01 0
0.000000e+00 -1.889441e-13 0
0.000000e+00 0.000000e+00 0
-4.063630e-01 1.319921e+02 0
1.312433e+01 8.272449e+01 0
0.000000e+00 0.000000e+00 0
0.000000e+00 0.000000e+00 0
0.000000e+00 0.000000e+00 0
0.000000e+00 0.000000e+00 0
0.000000e+00 -5.000000e+01 0
0.000000e+00 -1.000080e+02 0
-8.941561e-03 -1.000063e+02 0
2.697996e-02 -1.000113e+02 0
4.863843e-02 -1.000130e+02 0
4.863843e-02 -5.000000e+01 0
0.000000e+00 -1.497516e-03 0
-8.677670e+01 1.450466e+01 0
-5.158237e+01 1.091907e+01 0
-1.254396e+01 -3.587084e+00 0
-3.884164e+01 2.729652e+01 0
-4.169545e+01 7.135873e+01 0
0.000000e+00 -1.839719e-13 0
0.000000e+00 0.000000e+00 0
-7.788866e-01 1.171858e+02 0
1.229240e+01 6.764758e+01 0
0.000000e+00 0.000000e+00 0
0.000000e+00 0.000000e+00 0
0.000000e+00 0.000000e+00 0
0.000000e+00 0.000000e+00 0
0.000000e+00 -5.000000e+01 0
0.000000e+00 -1.000119e+02 0
-7.874014e-03 -1.000214e+02 0
7.224433e-03 -1.000283e+02 0
1.339040e-02 -1.000187e+02 0
1.339040e-02 -5.000000e+01 0
0.000000e+00 -1.497516e-03 0
-3.884164e+01 1.450466e+01 0
-3.884164e+01 2.951542e+01 0
-7.182939e+01 3.749007e+01 0
-8.253397e+01 4.977732e+01 0
-3.884164e+01 3.222283e+01 0
0.000000e+00 -1.988885e-14 0
0.000000e+00 0.000000e+00 0
-6.729200e-01 1.196065e+02 0
4.969445e+00 6.955418e+01 0
0.000000e+00 0.000000e+00 0
0.000000e+00 0.000000e+00 0
0.000000e+00 0.000000e+00 0
0.000000e+00 0.000000e+00 0
0.000000e+00 -5.000000e+01 0
0.000000e+00 -1.000122e+02 0
-7.182757e-03 -1.000257e+02 0
-3.388329e-03 -1.000327e+02 0
-4.883153e-03 -1.000192e+02 0
-4.883153e-03 -5.000000e+01 0
0.000000e+00 0.000000e+00 0
0.000000e+00 6.833639e+01 0
-1.116437e-13 1.366728e+02 0
-5.292617e+01 1.366728e+02 0
-4.369233e+01 6.833639e+01 0
0.000000e+00 0.000000e+00 0
0.000000e+00 0.000000e+00 0
0.000000e+00 0.000000e+00 0
-2.534919e+00 1.121787e+02 0
1.257101e+01 6.196247e+01 0
0.000000e+00 0.000000e+00 0
0.000000e+00 0.000000e+00 0
0.000000e+00 0.000000e+00 0
0.000000e+00 0.000000e+00 0
0.000000e+00 -5.000000e+01 0
0.000000e+00 -1.000107e+02 0
-6.329573e-03 -1.000241e+02 0
-8.527556e-03 -1.000306e+02 0
-1.389677e-02 -1.000172e+02 0
-1.389677e-02 -5.000000e+01 0
0.000000e+00 0.000000e+00 0
0.000000e+00 0.000000e+00 0
0.000000e+00 0.000000e+00 0
0.000000e+00 0.000000e+00 0
0.000000e+00 0.000000e+00 0
0.000000e+00 0.000000e+00 0
0.000000e+00 0.000000e+00 0
0.000000e+00 -9.018433e-03 0
-2.374670e+00 1.069403e+02 0
5.199007e+00 5.433381e+01 0
0.000000e+00 0.000000e+00 0
0.000000e+00 0.000000e+00 0
0.000000e+00 0.000000e+00 0
0.000000e+00 0.000000e+00 0
0.000000e+00 -5.000000e+01 0
0.000000e+00 -1.000083e+02 0
-5.116430e-03 -1.000196e+02 0
-1.032812e-02 -1.000251e+02 0
-1.760452e-02 -1.000138e+02 0
-1.760452e-02 -5.000000e+01 0
0.000000e+00 0.000000e+00 0
0.000000e+00 0.000000e+00 0
0.000000e+00 0.000000e+00 0
0.000000e+00 0.000000e+00 0
0.000000e+00 0.000000e+00 0
0.000000e+00 0.000000e+00 0
0.000000e+00 0.000000e+00 0
0.000000e+00 5.433377e+01 0
-2.375514e-03 1.086652e+02 0
0.000000e+00 9.301902e+01 0
0.000000e+00 3.868760e+01 0
0.000000e+00 0.000000e+00 0
0.000000e+00 0.000000e+00 0
0.000000e+00 0.000000e+00 0
0.000000e+00 -5.000000e+01 0
0.000000e+00 -1.000058e+02 0
-3.464845e-03 -1.000139e+02 0
-9.909170e-03 -1.000180e+02 0
-1.789321e-02 -1.000098e+02 0
-1.789321e-02 -5.000000e+01 0
0.000000e+00 0.000000e+00 0
0.000000e+00 0.000000e+00 0
0.000000e+00 0.000000e+00 0
0.000000e+00 0.000000e+00 0
0.000000e+00 0.000000e+00 0
0.000000e+00 0.000000e+00 0
0.000000e+00 0.000000e+00 0
0.000000e+00 0.000000e+00 0
0.000000e+00 5.433141e+01 0
0.000000e+00 9.301902e+01 0
0.000000e+00 3.868760e+01 0
0.000000e+00 0.000000e+00 0
0.000000e+00 0.000000e+00 0
0.000000e+00 0.000000e+00 0
0.000000e+00 -5.000000e+01 0
0.000000e+00 -1.000034e+02 0
-1.455245e-03 -1.000082e+02 0
-7.815394e-03 -1.000105e+02 0
-1.546895e-02 -1.000058e+02 0
-1.546895e-02 -5.000000e+01 0
0.000000e+00 0.000000e+00 0
0.000000e+00 0.000000e+00 0
0.000000e+00 0.000000e+00 0
0.000000e+00 0.000000e+00 0
0.000000e+00 0.000000e+00 0
0.000000e+00 0.000000e+00 0
0.000000e+00 0.000000e+00 0
0.000000e+00 0.000000e+00 0
0.000000e+00 0.000000e+00 0
0.000000e+00 0.000000e+00 0
0.000000e+00 0.000000e+00 0
0.000000e+00 0.000000e+00 0
0.000000e+00 0.000000e+00 0
0.000000e+00 0.000000e+00 0
0.000000e+00 -5.000000e+01 0
0.000000e+00 -1.000016e+02 0
3.656995e-04 -1.000033e+02 0
-4.364338e-03 -1.000039e+02 0
-1.008659e-02 -1.000021e+02 0
-1.008659e-02 -5.000000e+01 0
0.000000e+00 0.000000e+00 0
0.000000e+00 0.000000e+00 0
0.000000e+00 0.000000e+00 0
0.000000e+00 0.000000e+00 0
0.000000e+00 0.000000e+00 0
0.000000e+00 0.000000e+00 0
0.000000e+00 0.000000e+00 0
0.000000e+00 0.000000e+00 0
0.000000e+00 0.000000e+00 0
0.000000e+00 0.000000e+00 0
0.000000e+00 0.000000e+00 0
0.000000e+00 0.000000e+00 0
0.000000e+00 0.000000e+00 0
0.000000e+00 0.000000e+00 0
0.000000e+00 -5.000000e+01 0
0.000000e+00 -1.000000e+02 0
4.703937e-18 -1.000000e+02 0
-9.711354e-18 -1.000000e+02 0
-2.706472e-17 -1.000000e+02 0
-2.731318e-17 -5.000000e+01 0
0.000000e+00 0.000000e+00 0
0.000000e+00 0.000000e+00 0
0.000000e+00 0.000000e+00 0
0.000000e+00 0.000000e+00 0
0.000000e+00 0.000000e+00 0
0.000000e+00 0.000000e+00 0
0.000000e+00 0.000000e+00 0
</DataArray>
<DataArray Name="Type and Neighbourhood" type="Float64" format="ascii" NumberOfComponents="3">
0.000000e+00 0.000000e+00 0
0.000000e+00 0.000000e+00 0
0.000000e+00 0.000000e+00 0
0.000000e+00 0.000000e+00 0
0.000000e+00 0.000000e+00 0
0.000000e+00 0.000000e+00 0
0.000000e+00 0.000000e+00 0
0.000000e+00 0.000000e+00 0