<?xml version="1.0"?>
<VTKFile type="StructuredGrid">
<StructuredGrid WholeExtent="0 19 0 33 0 0 ">
<Piece Extent="0 19 0 33 0 0 ">
<Points>
<DataArray type="Float64" format="ascii" NumberOfComponents="3">
0.000000e+00 0.000000e+00 0.000000e+00
1.052632e-01 0.000000e+00 0.000000e+00
2.105263e-01 0.000000e+00 0.000000e+00
3.157895e-01 0.000000e+00 0.000000e+00
4.210526e-01 0.000000e+00 0.000000e+00
5.263158e-01 0.000000e+00 0.000000e+00
6.315789e-01 0.000000e+00 0.000000e+00
7.368421e-01 0.000000e+00 0.000000e+00
8.421053e-01 0.000000e+00 0.000000e+00
9.473684e-01 0.000000e+00 0.000000e+00
1.052632e+00 0.000000e+00 0.000000e+00
1.157895e+00 0.000000e+00 0.000000e+00
1.263158e+00 0.000000e+00 0.000000e+00
1.368421e+00 0.000000e+00 0.000000e+00
1.473684e+00 0.000000e+00 0.000000e+00
1.578947e+00 0.000000e+00 0.000000e+00
1.684211e+00 0.000000e+00 0.000000e+00
1.789474e+00 0.000000e+00 0.000000e+00
1.894737e+00 0.000000e+00 0.000000e+00
2.000000e+00 0.000000e+00 0.000000e+00
0.000000e+00 1.060606e-01 0.000000e+00
1.052632e-01 1.060606e-01 0.000000e+00
2.105263e-01 1.060606e-01 0.000000e+00
3.157895e-01 1.060606e-01 0.000000e+00
4.210526e-01 1.060606e-01 0.000000e+00
5.263158e-01 1.060606e-01 0.000000e+00
6.315789e-01 1.060606e-01 0.000000e+00
7.368421e-01 1.060606e-01 0.000000e+00
8.421053e-01 1.060606e-01 0.000000e+00
9.473684e-01 1.060606e-01 0.000000e+00
1.052632e+00 1.060606e-01 0.000000e+00
1.157895e+00 1.060606e-01 0.000000e+00
1.263158e+00 1.060606e-01 0.000000e+00
1.368421e+00 1.060606e-01 0.000000e+00
1.473684e+00 1.060606e-01 0.000000e+00
1.578947e+00 1.060606e-01 0.000000e+00
1.684211e+00 1.060606e-01 0.000000e+00
1.789474e+00 1.060606e-01 0.000000e+00
1.894737e+00 1.060606e-01 0.000000e+00
2.000000e+00 1.060606e-01 0.000000e+00
0.000000e+00 2.121212e-01 0.000000e+00
1.052632e-01 2.121212e-01 0.000000e+00
2.105263e-01 2.121212e-01 0.000000e+00
3.157895e-01 2.121212e-01 0.000000e+00
4.210526e-01 2.121212e-01 0.000000e+00
5.263158e-01 2.121212e-01 0.000000e+00
6.315789e-01 2.121212e-01 0.000000e+00
7.368421e-01 2.121212e-01 0.000000e+00
8.421053e-01 2.121212e-01 0.000000e+00
9.473684e-01 2.121212e-01 0.000000e+00
1.052632e+00 2.121212e-01 0.000000e+00
1.157895e+00 2.121212e-01 0.000000e+00
1.263158e+00 2.121212e-01 0.000000e+00
1.368421e+00 2.121212e-01 0.000000e+00
1.473684e+00 2.121212e-01 0.000000e+00
1.578947e+00 2.121212e-01 0.000000e+00
1.684211e+00 2.121212e-01 0.000000e+00
1.789474e+00 2.121212e-01 0.000000e+00
1.894737e+00 2.121212e-01 0.000000e+00
2.000000e+00 2.121212e-01 0.000000e+00
0.000000e+00 3.181818e-01 0.000000e+00
1.052632e-01 3.181818e-01 0.000000e+00
2.105263e-01 3.181818e-01 0.000000e+00
3.157895e-01 3.181818e-01 0.000000e+00
4.210526e-01 3.181818e-01 0.000000e+00
5.263158e-01 3.181818e-01 0.000000e+00
6.315789e-01 3.181818e-01 0.000000e+00
7.368421e-01 3.181818e-01 0.000000e+00
8.421053e-01 3.181818e-01 0.000000e+00
9.473684e-01 3.181818e-01 0.000000e+00
1.052632e+00 3.181818e-01 0.000000e+00
1.157895e+00 3.181818e-01 0.000000e+00
1.263158e+00 3.181818e-01 0.000000e+00
1.368421e+00 3.181818e-01 0.000000e+00
1.473684e+00 3.181818e-01 0.000000e+00
1.578947e+00 3.181818e-01 0.000000e+00
1.684211e+00 3.181818e-01 0.000000e+00
1.789474e+00 3.181818e-01 0.000000e+00
1.894737e+00 3.181818e-01 0.000000e+00
2.000000e+00 3.181818e-01 0.000000e+00
0.000000e+00 4.242424e-01 0.000000e+00
1.052632e-01 4.242424e-01 0.000000e+00
2.105263e-01 4.242424e-01 0.000000e+00
3.157895e-01 4.242424e-01 0.000000e+00
4.210526e-01 4.242424e-01 0.000000e+00
5.263158e-01 4.242424e-01 0.000000e+00
6.315789e-01 4.242424e-01 0.000000e+00
7.368421e-01 4.242424e-01 0.000000e+00
8.421053e-01 4.242424e-01 0.000000e+00
9.473684e-01 4.242424e-01 0.000000e+00
1.052632e+00 4.242424e-01 0.000000e+00
1.157895e+00 4.242424e-01 0.000000e+00
1.263158e+00 4.242424e-01 0.000000e+00
1.368421e+00 4.242424e-01 0.000000e+00
1.473684e+00 4.242424e-01 0.000000e+00
1.578947e+00 4.242424e-01 0.000000e+00
1.684211e+00 4.242424e-01 0.000000e+00
1.789474e+00 4.242424e-01 0.000000e+00
1.894737e+00 4.242424e-01 0.000000e+00
2.000000e+00 4.242424e-01 0.000000e+00
0.000000e+00 5.303030e-01 0.000000e+00
1.052632e-01 5.303030e-01 0.000000e+00
2.105263e-01 5.303030e-01 0.000000e+00
3.157895e-01 5.303030e-01 0.000000e+00
4.210526e-01 5.303030e-01 0.000000e+00
5.263158e-01 5.303030e-01 0.000000e+00
6.315789e-01 5.303030e-01 0.000000e+00
7.368421e-01 5.303030e-01 0.000000e+00
8.421053e-01 5.303030e-01 0.000000e+00
9.473684e-01 5.303030e-01 0.000000e+00
1.052632e+00 5.303030e-01 0.000000e+00
1.157895e+00 5.303030e-01 0.000000e+00
1.263158e+00 5.303030e-01 0.000000e+00
1.368421e+00 5.303030e-01 0.000000e+00
1.473684e+00 5.303030e-01 0.000000e+00
1.578947e+00 5.303030e-01 0.000000e+00
1.684211e+00 5.303030e-01 0.000000e+00
1.789474e+00 5.303030e-01 0.000000e+00
1.894737e+00 5.303030e-01 0.000000e+00
2.000000e+00 5.303030e-01 0.000000e+00
0.000000e+00 6.363636e-01 0.000000e+00
1.052632e-01 6.363636e-01 0.000000e+00
2.105263e-01 6.363636e-01 0.000000e+00
3.157895e-01 6.363636e-01 0.000000e+00
4.210526e-01 6.363636e-01 0.000000e+00
5.263158e-01 6.363636e-01 0.000000e+00
6.315789e-01 6.363636e-01 0.000000e+00
7.368421e-01 6.363636e-01 0.000000e+00
8.421053e-01 6.363636e-01 0.000000e+00
9.473684e-01 6.363636e-01 0.000000e+00
1.052632e+00 6.363636e-01 0.000000e+00
1.157895e+00 6.363636e-01 0.000000e+00
1.263158e+00 6.363636e-01 0.000000e+00
1.368421e+00 6.363636e-01 0.000000e+00
1.473684e+00 6.363636e-01 0.000000e+00
1.578947e+00 6.363636e-01 0.000000e+00
1.684211e+00 6.363636e-01 0.000000e+00
1.789474e+00 6.363636e-01 0.000000e+00
1.894737e+00 6.363636e-01 0.000000e+00
2.000000e+00 6.363636e-01 0.000000e+00
0.000000e+00 7.424242e-01 0.000000e+00
1.052632e-01 7.424242e-01 0.000000e+00
2.105263e-01 7.424242e-01 0.000000e+00
3.157895e-01 7.424242e-01 0.000000e+00
4.210526e-01 7.424242e-01 0.000000e+00
5.263158e-01 7.424242e-01 0.000000e+00
6.315789e-01 7.424242e-01 0.000000e+00
7.368421e-01 7.424242e-01 0.000000e+00
8.421053e-01 7.424242e-01 0.000000e+00
9.473684e-01 7.424242e-01 0.000000e+00
1.052632e+00 7.424242e-01 0.000000e+00
1.157895e+00 7.424242e-01 0.000000e+00
1.263158e+00 7.424242e-01 0.000000e+00
1.368421e+00 7.424242e-01 0.000000e+00
1.473684e+00 7.424242e-01 0.000000e+00
1.578947e+00 7.424242e-01 0.000000e+00
1.684211e+00 7.424242e-01 0.000000e+00
1.789474e+00 7.424242e-01 0.000000e+00
1.894737e+00 7.424242e-01 0.000000e+00
2.000000e+00 7.424242e-01 0.000000e+00
0.000000e+00 8.484848e-01 0.000000e+00
1.052632e-01 8.484848e-01 0.000000e+00
2.105263e-01 8.484848e-01 0.000000e+00
3.157895e-01 8.484848e-01 0.000000e+00
4.210526e-01 8.484848e-01 0.000000e+00
5.263158e-01 8.484848e-01 0.000000e+00
6.315789e-01 8.484848e-01 0.000000e+00
7.368421e-01 8.484848e-01 0.000000e+00
8.421053e-01 8.484848e-01 0.000000e+00
9.473684e-01 8.484848e-01 0.000000e+00
1.052632e+00 8.484848e-01 0.000000e+00
1.157895e+00 8.484848e-01 0.000000e+00
1.263158e+00 8.484848e-01 0.000000e+00
1.368421e+00 8.484848e-01 0.000000e+00
1.473684e+00 8.484848e-01 0.000000e+00
1.578947e+00 8.484848e-01 0.000000e+00
1.684211e+00 8.484848e-01 0.000000e+00
1.789474e+00 8.484848e-01 0.000000e+00
1.894737e+00 8.484848e-01 0.000000e+00
2.000000e+00 8.484848e-01 0.000000e+00
0.000000e+00 9.545455e-01 0.000000e+00
1.052632e-01 9.545455e-01 0.000000e+00
2.105263e-01 9.545455e-01 0.000000e+00
3.157895e-01 9.545455e-01 0.000000e+00
4.210526e-01 9.545455e-01 0.000000e+00
5.263158e-01 9.545455e-01 0.000000e+00
6.315789e-01 9.545455e-01 0.000000e+00
7.368421e-01 9.545455e-01 0.000000e+00
8.421053e-01 9.545455e-01 0.000000e+00
9.473684e-01 9.545455e-01 0.000000e+00
1.052632e+00 9.545455e-01 0.000000e+00
1.157895e+00 9.545455e-01 0.000000e+00
1.263158e+00 9.545455e-01 0.000000e+00
1.368421e+00 9.545455e-01 0.000000e+00
1.473684e+00 9.545455e-01 0.000000e+00
1.578947e+00 9.545455e-01 0.000000e+00
1.684211e+00 9.545455e-01 0.000000e+00
1.789474e+00 9.545455e-01 0.000000e+00
1.894737e+00 9.545455e-01 0.000000e+00
2.000000e+00 9.545455e-01 0.000000e+00
0.000000e+00 1.060606e+00 0.000000e+00
1.052632e-01 1.060606e+00 0.000000e+00
2.105263e-01 1.060606e+00 0.000000e+00
3.157895e-01 1.060606e+00 0.000000e+00
4.210526e-01 1.060606e+00 0.000000e+00
5.263158e-01 1.060606e+00 0.000000e+00
6.315789e-01 1.060606e+00 0.000000e+00
7.368421e-01 1.060606e+00 0.000000e+00
8.421053e-01 1.060606e+00 0.000000e+00
9.473684e-01 1.060606e+00 0.000000e+00
1.052632e+00 1.060606e+00 0.000000e+00
1.157895e+00 1.060606e+00 0.000000e+00
1.263158e+00 1.060606e+00 0.000000e+00
1.368421e+00 1.060606e+00 0.000000e+00
1.473684e+00 1.060606e+00 0.000000e+00
1.578947e+00 1.060606e+00 0.000000e+00
1.684211e+00 1.060606e+00 0.000000e+00
1.789474e+00 1.060606e+00 0.000000e+00
1.894737e+00 1.060606e+00 0.000000e+00
2.000000e+00 1.060606e+00 0.000000e+00
0.000000e+00 1.166667e+00 0.000000e+00
1.052632e-01 1.166667e+00 0.000000e+00
2.105263e-01 1.166667e+00 0.000000e+00
3.157895e-01 1.166667e+00 0.000000e+00
4.210526e-01 1.166667e+00 0.000000e+00
5.263158e-01 1.166667e+00 0.000000e+00
6.315789e-01 1.166667e+00 0.000000e+00
7.368421e-01 1.166667e+00 0.000000e+00
8.421053e-01 1.166667e+00 0.000000e+00
9.473684e-01 1.166667e+00 0.000000e+00
1.052632e+00 1.166667e+00 0.000000e+00
1.157895e+00 1.166667e+00 0.000000e+00
1.263158e+00 1.166667e+00 0.000000e+00
1.368421e+00 1.166667e+00 0.000000e+00
1.473684e+00 1.166667e+00 0.000000e+00
1.578947e+00 1.166667e+00 0.000000e+00
1.684211e+00 1.166667e+00 0.000000e+00
1.789474e+00 1.166667e+00 0.000000e+00
1.894737e+00 1.166667e+00 0.000000e+00
2.000000e+00 1.166667e+00 0.000000e+00
0.000000e+00 1.272727e+00 0.000000e+00
1.052632e-01 1.272727e+00 0.000000e+00
2.105263e-01 1.272727e+00 0.000000e+00
3.157895e-01 1.272727e+00 0.000000e+00
4.210526e-01 1.272727e+00 0.000000e+00
5.263158e-01 1.272727e+00 0.000000e+00
6.315789e-01 1.272727e+00 0.000000e+00
7.368421e-01 1.272727e+00 0.000000e+00
8.421053e-01 1.272727e+00 0.000000e+00
9.473684e-01 1.272727e+00 0.000000e+00
1.052632e+00 1.272727e+00 0.000000e+00
[...]
<PointData>
<DataArray Name="Velocity" type="Float64" format="ascii" NumberOfComponents="3">
0.000000e+00 0.000000e+00 0
0.000000e+00 0.000000e+00 0
2.241780e+01 0.000000e+00 0
0.000000e+00 0.000000e+00 0
0.000000e+00 0.000000e+00 0
0.000000e+00 0.000000e+00 0
0.000000e+00 0.000000e+00 0
0.000000e+00 0.000000e+00 0
0.000000e+00 0.000000e+00 0
0.000000e+00 0.000000e+00 0
0.000000e+00 0.000000e+00 0
1.060736e-15 0.000000e+00 0
0.000000e+00 0.000000e+00 0
0.000000e+00 0.000000e+00 0
0.000000e+00 0.000000e+00 0
-6.436018e-17 0.000000e+00 0
0.000000e+00 0.000000e+00 0
0.000000e+00 0.000000e+00 0
0.000000e+00 0.000000e+00 0
0.000000e+00 0.000000e+00 0
0.000000e+00 0.000000e+00 0
-2.351577e+01 1.284569e+01 0
-2.036812e+01 7.410525e+00 0
-5.703361e+01 1.153811e+01 0
-6.532268e+01 4.580642e+00 0
-6.671675e+01 -3.124651e+00 0
-6.033111e+01 -1.153518e+01 0
-4.588949e+01 -1.924054e+01 0
-2.479128e+01 -2.084197e+01 0
-6.493674e+00 -1.706540e+01 0
1.020325e+01 -1.515245e+01 0
2.630034e+01 -1.657682e+01 0
4.400542e+01 -1.570313e+01 0
5.702750e+01 -1.010667e+01 0
6.320601e+01 -3.113322e+00 0
6.220192e+01 3.519078e+00 0
5.532103e+01 8.710142e+00 0
4.344996e+01 1.584665e+01 0
2.588941e+01 2.305711e+01 0
0.000000e+00 -5.220824e-14 0
0.000000e+00 0.000000e+00 0
-1.953420e+01 4.311006e+01 0
-3.731882e+01 3.377176e+01 0
-5.041819e+01 2.270749e+01 0
-5.872665e+01 9.756497e+00 0
-6.102005e+01 -5.029389e+00 0
-5.628629e+01 -2.098504e+01 0
-4.495420e+01 -3.580907e+01 0
-2.585361e+01 -3.969427e+01 0
-7.966308e+00 -3.525964e+01 0
9.899641e+00 -3.304245e+01 0
2.711830e+01 -3.405824e+01 0
4.467930e+01 -3.095995e+01 0
5.689925e+01 -1.934605e+01 0
6.245323e+01 -5.213619e+00 0
5.962260e+01 7.944711e+00 0
5.271095e+01 1.889402e+01 0
4.022068e+01 2.965459e+01 0
2.476238e+01 4.377912e+01 0
0.000000e+00 -1.143609e-13 0
0.000000e+00 0.000000e+00 0
-1.495736e+01 6.018918e+01 0
-2.873007e+01 4.827043e+01 0
-3.951764e+01 3.310812e+01 0
-4.756318e+01 1.526282e+01 0
-5.085696e+01 -5.583503e+00 0
-4.840161e+01 -2.772274e+01 0
-4.152123e+01 -4.990377e+01 0
-2.436996e+01 -5.811007e+01 0
-6.419451e+00 -5.308951e+01 0
1.015891e+01 -5.050285e+01 0
2.713827e+01 -5.161996e+01 0
4.393235e+01 -4.570969e+01 0
5.499856e+01 -2.801526e+01 0
6.175412e+01 -5.857303e+00 0
5.973606e+01 1.333517e+01 0
4.929249e+01 2.825905e+01 0
3.527630e+01 4.400694e+01 0
1.906615e+01 6.358249e+01 0
0.000000e+00 -1.591108e-13 0
0.000000e+00 0.000000e+00 0
-9.998726e+00 7.205778e+01 0
-1.804889e+01 5.851811e+01 0
-2.311487e+01 4.168327e+01 0
-2.511877e+01 2.118172e+01 0
-2.902430e+01 -4.184607e+00 0
-3.550967e+01 -3.039150e+01 0
-3.543842e+01 -6.002278e+01 0
-2.157340e+01 -7.506197e+01 0
-4.413928e+00 -7.005009e+01 0
1.048192e+01 -6.685440e+01 0
2.602605e+01 -6.808755e+01 0
4.078672e+01 -5.903129e+01 0
4.866256e+01 -3.730283e+01 0
5.273331e+01 -9.987012e+00 0
3.078698e+01 1.786816e+01 0
3.223870e+01 4.090650e+01 0
2.196286e+01 6.010993e+01 0
1.079321e+01 7.932267e+01 0
0.000000e+00 -1.889441e-13 0
0.000000e+00 0.000000e+00 0
-6.021624e+00 7.837480e+01 0
-9.171972e+00 6.148594e+01 0
-1.006970e+01 4.023156e+01 0
2.810105e+00 2.121702e+01 0
7.460365e+00 4.886113e+00 0
-1.461760e+01 -2.126003e+01 0
-2.678470e+01 -6.394562e+01 0
-1.774241e+01 -8.936960e+01 0
-2.250473e+00 -8.538767e+01 0
1.026356e+01 -8.117343e+01 0
2.329734e+01 -8.215434e+01 0
3.455166e+01 -6.851769e+01 0
3.728051e+01 -4.005236e+01 0
1.813595e+01 -1.303206e+01 0
-3.838294e+00 6.338930e+00 0
3.786873e+00 3.447616e+01 0
6.287573e+00 6.540141e+01 0
2.510581e+00 8.571174e+01 0
0.000000e+00 -1.988885e-13 0
0.000000e+00 0.000000e+00 0
-2.601137e+00 8.129924e+01 0
-3.387550e+00 6.259685e+01 0
1.026010e+00 2.961042e+01 0
1.452106e+01 3.518850e+00 0
2.113204e+01 1.337513e+01 0
5.456861e+00 4.112998e+00 0
-1.843005e+01 -5.687430e+01 0
-1.374336e+01 -9.978207e+01 0
-6.586418e-01 -9.826823e+01 0
8.982782e+00 -9.259575e+01 0
1.857698e+01 -9.255964e+01 0
2.562638e+01 -7.312040e+01 0
1.912782e+01 -5.404060e+01 0
-3.838294e+00 -1.501285e+00 0
-7.676588e+00 3.283142e+01 0
-4.804453e+00 3.278136e+01 0
8.714140e+00 6.330110e+01 0
-2.161874e+00 8.565787e+01 0
0.000000e+00 -2.088330e-13 0
0.000000e+00 0.000000e+00 0
1.447249e+00 8.178802e+01 0
1.073190e+00 5.783131e+01 0
3.864932e-01 2.218728e+01 0
6.882226e+00 9.586749e-01 0
6.882226e+00 1.401898e+01 0
6.243215e+00 8.897874e+00 0
-1.216970e+01 -5.430384e+01 0
-9.761561e+00 -1.072756e+02 0
-1.889355e-01 -1.082860e+02 0
6.120068e+00 -1.005548e+02 0
1.138229e+01 -9.892403e+01 0
1.414166e+01 -4.860224e+01 0
7.643102e+00 -2.043279e-03 0
0.000000e+00 2.938639e+01 0
-3.838294e+00 2.938639e+01 0
0.000000e+00 2.059202e+01 0
6.823430e+00 6.075480e+01 0
-4.583526e+00 8.643210e+01 0
0.000000e+00 -1.988885e-13 0
0.000000e+00 0.000000e+00 0
9.516043e+00 8.021792e+01 0
4.913697e+00 6.366564e+01 0
-1.237644e+01 2.682135e+01 0
0.000000e+00 0.000000e+00 0
0.000000e+00 0.000000e+00 0
0.000000e+00 -1.050680e-03 0
-6.433655e+00 -4.968011e+01 0
-5.693148e+00 -1.114562e+02 0
-9.428739e-01 -1.142702e+02 0
1.656540e+00 -1.042546e+02 0
2.708652e+00 -1.009696e+02 0
4.565408e+00 -4.921004e+01 0
3.821551e+00 -2.043279e-03 0
0.000000e+00 0.000000e+00 0
-3.229871e+01 0.000000e+00 0
0.000000e+00 -1.751642e-03 0
-4.924429e+00 3.968814e+01 0
-9.798127e+00 8.289737e+01 0
0.000000e+00 -1.839719e-13 0
0.000000e+00 0.000000e+00 0
1.163420e+01 7.683710e+01 0
4.963180e+00 7.988964e+01 0
-6.813851e+00 3.868760e+01 0
0.000000e+00 0.000000e+00 0
0.000000e+00 0.000000e+00 0
0.000000e+00 -1.050680e-03 0
-1.761559e+00 -4.911241e+01 0
-2.875092e+00 -1.119526e+02 0
-2.849623e+00 -1.156913e+02 0
-3.654382e+00 -1.042340e+02 0
-4.411846e+00 -1.021826e+02 0
7.438570e-01 -5.079864e+01 0
0.000000e+00 0.000000e+00 0
0.000000e+00 -4.129535e-02 0
-3.229871e+01 -4.129535e-02 0
0.000000e+00 -1.751642e-03 0
-7.223907e+00 4.117568e+01 0
-2.108658e+01 7.757439e+01 0
0.000000e+00 -1.591108e-13 0
0.000000e+00 0.000000e+00 0
-3.590959e+00 7.521714e+01 0
-5.974034e+00 8.225345e+01 0
-5.974034e+00 3.868760e+01 0
0.000000e+00 0.000000e+00 0
0.000000e+00 0.000000e+00 0
0.000000e+00 -1.099833e-18 0
0.000000e+00 -4.960329e+01 0
-1.004655e+00 -1.113863e+02 0
-5.412246e+00 -1.134652e+02 0
-8.626756e+00 -1.026806e+02 0
-8.786881e+00 -5.099842e+01 0
0.000000e+00 -5.317509e-14 0
0.000000e+00 0.000000e+00 0
0.000000e+00 -4.322722e-17 0
0.000000e+00 -4.322722e-17 0
0.000000e+00 -1.751642e-03 0
-4.243653e+00 4.933878e+01 0
5.538741e+00 7.130169e+01 0
0.000000e+00 -9.447205e-14 0
0.000000e+00 3.165333e+01 0
-7.544774e+00 6.215542e+01 0
-7.581812e+00 6.158980e+01 0
-7.581812e+00 3.868760e+01 0
0.000000e+00 0.000000e+00 0
0.000000e+00 0.000000e+00 0
0.000000e+00 0.000000e+00 0
0.000000e+00 -5.000000e+01 0
0.000000e+00 -1.091087e+02 0
-7.693909e+00 -1.087199e+02 0
-1.231527e+01 -1.008338e+02 0
-1.238126e+01 -5.122257e+01 0
0.000000e+00 0.000000e+00 0
0.000000e+00 -9.266845e-17 0
0.000000e+00 -6.690522e-03 0
2.175338e-14 -4.893984e-02 0
1.031248e+01 -4.224932e-02 0
0.000000e+00 3.650362e+01 0
2.451631e+01 7.818985e+01 0
0.000000e+00 -1.690552e-13 0
0.000000e+00 0.000000e+00 0
0.000000e+00 2.290219e+01 0
0.000000e+00 6.158980e+01 0
0.000000e+00 3.868760e+01 0
0.000000e+00 0.000000e+00 0
0.000000e+00 0.000000e+00 0
0.000000e+00 0.000000e+00 0
0.000000e+00 -5.000000e+01 0
0.000000e+00 -1.057397e+02 0
-8.901404e+00 -1.027655e+02 0
-1.436115e+01 -9.795771e+01 0
-2.248673e+01 -5.093192e+01 0
0.000000e+00 0.000000e+00 0
0.000000e+00 -4.426350e-02 0
0.000000e+00 -4.426350e-02 0
2.175338e-14 -4.224932e-02 0
1.031248e+01 -4.224932e-02 0
0.000000e+00 3.650362e+01 0
7.797036e+00 8.421494e+01 0
0.000000e+00 -1.988885e-13 0
0.000000e+00 0.000000e+00 0
0.000000e+00 0.000000e+00 0
0.000000e+00 3.868760e+01 0
0.000000e+00 3.868760e+01 0
0.000000e+00 0.000000e+00 0
0.000000e+00 0.000000e+00 0
0.000000e+00 0.000000e+00 0
0.000000e+00 -5.000000e+01 0
0.000000e+00 -1.023766e+02 0
-9.141864e+00 -9.648664e+01 0
-1.619968e+01 -8.650260e+01 0
-2.821929e+01 -6.528566e+01 0
-6.762228e+00 -2.289461e+01 0
-1.912548e+01 -1.456234e-03 0
-3.917264e+01 -3.218446e+01 0
0.000000e+00 -3.218446e+01 0
0.000000e+00 0.000000e+00 0
0.000000e+00 3.650362e+01 0
1.128430e+01 8.801863e+01 0
0.000000e+00 -2.187774e-13 0
0.000000e+00 0.000000e+00 0
0.000000e+00 0.000000e+00 0
0.000000e+00 3.868760e+01 0
0.000000e+00 3.868760e+01 0
0.000000e+00 0.000000e+00 0
0.000000e+00 0.000000e+00 0
0.000000e+00 0.000000e+00 0
0.000000e+00 -5.000000e+01 0
0.000000e+00 -9.935507e+01 0
-6.453931e+00 -8.926958e+01 0
-9.104126e+00 -7.809284e+01 0
-1.052432e+01 -8.143758e+01 0
-2.602093e+00 -8.346543e+01 0
-1.883341e+01 -3.837729e+01 0
-3.917264e+01 1.828897e+00 0
0.000000e+00 0.000000e+00 0
0.000000e+00 0.000000e+00 0
0.000000e+00 3.650362e+01 0
8.137572e+00 9.633504e+01 0
0.000000e+00 -2.486107e-13 0
0.000000e+00 0.000000e+00 0
0.000000e+00 0.000000e+00 0
0.000000e+00 3.868760e+01 0
0.000000e+00 3.868760e+01 0
0.000000e+00 0.000000e+00 0
0.000000e+00 0.000000e+00 0
0.000000e+00 0.000000e+00 0
0.000000e+00 -5.000000e+01 0
0.000000e+00 -9.881721e+01 0
-2.661976e+00 -9.025702e+01 0
1.785164e+00 -8.240137e+01 0
7.957352e+00 -8.601479e+01 0
1.022244e+01 -8.136205e+01 0
-1.998470e+01 -3.630882e+01 0
-1.006277e+01 -1.681466e-14 0
-5.446939e+01 -2.357527e-14 0
-5.437086e+01 7.562421e-15 0
-5.437086e+01 4.892573e-14 0
-2.579149e+01 6.407788e+01 0
0.000000e+00 -2.684995e-13 0
0.000000e+00 0.000000e+00 0
0.000000e+00 0.000000e+00 0
0.000000e+00 3.868760e+01 0
0.000000e+00 3.868760e+01 0
0.000000e+00 0.000000e+00 0
0.000000e+00 0.000000e+00 0
0.000000e+00 0.000000e+00 0
0.000000e+00 -5.000000e+01 0
0.000000e+00 -9.907406e+01 0
-1.210214e+00 -9.346940e+01 0
3.816824e+00 -8.879262e+01 0
9.674632e+00 -8.993878e+01 0
1.320061e+01 -5.069498e+01 0
-5.432501e+00 -9.166217e+00 0
-1.850301e+01 -8.031599e+00 0
-5.446939e+01 -1.126083e+01 0
-5.437086e+01 3.612225e+00 0
-7.670344e+01 2.336959e+01 0
-4.286057e+01 6.127449e+01 0
0.000000e+00 -2.088330e-13 0
0.000000e+00 0.000000e+00 0
0.000000e+00 0.000000e+00 0
0.000000e+00 0.000000e+00 0
0.000000e+00 0.000000e+00 0
0.000000e+00 0.000000e+00 0
0.000000e+00 0.000000e+00 0
0.000000e+00 0.000000e+00 0
0.000000e+00 -5.000000e+01 0
0.000000e+00 -9.931322e+01 0
-6.050617e-01 -9.581816e+01 0
2.995249e+00 -9.336868e+01 0
7.096297e+00 -9.546967e+01 0
1.108136e+01 -6.152376e+01 0
1.484427e+01 6.530350e+00 0
-2.199414e+00 1.944818e+01 0
-1.610368e+01 -7.241962e+00 0
0.000000e+00 9.183468e+00 0
-3.525509e+01 3.289405e+01 0
-3.398354e+01 4.802930e+01 0
0.000000e+00 -1.392220e-13 0
0.000000e+00 0.000000e+00 0
0.000000e+00 0.000000e+00 0
0.000000e+00 0.000000e+00 0
0.000000e+00 0.000000e+00 0
0.000000e+00 0.000000e+00 0
0.000000e+00 0.000000e+00 0
0.000000e+00 0.000000e+00 0
0.000000e+00 -5.000000e+01 0
0.000000e+00 -9.957614e+01 0
-2.189382e-01 -9.759907e+01 0
2.181656e+00 -9.655232e+01 0
4.588831e+00 -9.808614e+01 0
5.679947e+00 -4.955675e+01 0
2.104291e+01 1.944818e+01 0
6.240829e+00 3.471795e+01 0
-1.610368e+01 1.526977e+01 0
0.000000e+00 1.642543e+01 0
-1.292251e+01 3.792560e+01 0
-1.691445e+01 3.601826e+01 0
0.000000e+00 -6.215266e-14 0
0.000000e+00 0.000000e+00 0
0.000000e+00 0.000000e+00 0
0.000000e+00 0.000000e+00 0
0.000000e+00 0.000000e+00 0
0.000000e+00 0.000000e+00 0
0.000000e+00 0.000000e+00 0
0.000000e+00 0.000000e+00 0
0.000000e+00 -5.000000e+01 0
0.000000e+00 -9.976530e+01 0
-8.367300e-02 -9.868902e+01 0
1.306596e+00 -9.821287e+01 0
2.396078e+00 -9.932291e+01 0
2.118625e+00 -5.003989e+01 0
2.104291e+01 -6.139980e-03 0
0.000000e+00 0.000000e+00 0
0.000000e+00 0.000000e+00 0
0.000000e+00 0.000000e+00 0
0.000000e+00 2.150017e+01 0
0.000000e+00 3.601826e+01 0
0.000000e+00 -6.215266e-14 0
0.000000e+00 0.000000e+00 0
0.000000e+00 0.000000e+00 0
0.000000e+00 0.000000e+00 0
0.000000e+00 0.000000e+00 0
0.000000e+00 0.000000e+00 0
0.000000e+00 0.000000e+00 0
0.000000e+00 0.000000e+00 0
0.000000e+00 -5.000000e+01 0
0.000000e+00 -9.988147e+01 0
-3.577385e-02 -9.930520e+01 0
7.408006e-01 -9.905086e+01 0
1.278663e+00 -9.923277e+01 0
7.611458e-01 -4.960564e+01 0
0.000000e+00 0.000000e+00 0
0.000000e+00 0.000000e+00 0
0.000000e+00 0.000000e+00 0
0.000000e+00 0.000000e+00 0
0.000000e+00 0.000000e+00 0
0.000000e+00 0.000000e+00 0
0.000000e+00 0.000000e+00 0
0.000000e+00 0.000000e+00 0
0.000000e+00 0.000000e+00 0
0.000000e+00 0.000000e+00 0
0.000000e+00 0.000000e+00 0
0.000000e+00 0.000000e+00 0
0.000000e+00 0.000000e+00 0
0.000000e+00 0.000000e+00 0
0.000000e+00 -5.000000e+01 0
0.000000e+00 -9.995014e+01 0
-1.694240e-02 -9.965632e+01 0
4.164997e-01 -9.953727e+01 0
7.216648e-01 -9.934341e+01 0
1.113062e+00 -4.951231e+01 0
0.000000e+00 0.000000e+00 0
0.000000e+00 0.000000e+00 0
0.000000e+00 0.000000e+00 0
0.000000e+00 0.000000e+00 0
0.000000e+00 0.000000e+00 0
0.000000e+00 0.000000e+00 0
0.000000e+00 0.000000e+00 0
0.000000e+00 0.000000e+00 0
0.000000e+00 0.000000e+00 0
0.000000e+00 0.000000e+00 0
0.000000e+00 0.000000e+00 0
0.000000e+00 0.000000e+00 0
0.000000e+00 0.000000e+00 0
0.000000e+00 0.000000e+00 0
0.000000e+00 -5.000000e+01 0
0.000000e+00 -9.998815e+01 0
-1.164133e-02 -9.984860e+01 0
2.218009e-01 -9.979506e+01 0
3.718217e-01 -9.993461e+01 0
8.558405e-01 -5.000000e+01 0
0.000000e+00 0.000000e+00 0
0.000000e+00 0.000000e+00 0
0.000000e+00 0.000000e+00 0
0.000000e+00 0.000000e+00 0
0.000000e+00 0.000000e+00 0
0.000000e+00 0.000000e+00 0
0.000000e+00 0.000000e+00 0
0.000000e+00 0.000000e+00 0
0.000000e+00 0.000000e+00 0
0.000000e+00 0.000000e+00 0
0.000000e+00 0.000000e+00 0
0.000000e+00 0.000000e+00 0
0.000000e+00 0.000000e+00 0
0.000000e+00 0.000000e+00 0
0.000000e+00 -5.000000e+01 0
0.000000e+00 -1.000072e+02 0
-1.045682e-02 -9.994856e+01 0
1.113712e-01 -9.992364e+01 0
1.828629e-01 -9.998225e+01 0
1.828629e-01 -5.000000e+01 0
0.000000e+00 0.000000e+00 0
0.000000e+00 0.000000e+00 0
0.000000e+00 0.000000e+00 0
0.000000e+00 0.000000e+00 0
0.000000e+00 0.000000e+00 0
0.000000e+00 0.000000e+00 0
0.000000e+00 0.000000e+00 0
0.000000e+00 0.000000e+00 0
0.000000e+00 0.000000e+00 0
0.000000e+00 0.000000e+00 0
0.000000e+00 0.000000e+00 0
0.000000e+00 0.000000e+00 0
0.000000e+00 0.000000e+00 0
0.000000e+00 0.000000e+00 0
0.000000e+00 -5.000000e+01 0
0.000000e+00 -1.000155e+02 0
-9.792324e-03 -9.999870e+01 0
5.198407e-02 -9.998985e+01 0
8.676738e-02 -1.000066e+02 0
8.676738e-02 -5.000000e+01 0
0.000000e+00 0.000000e+00 0
0.000000e+00 0.000000e+00 0
0.000000e+00 0.000000e+00 0
0.000000e+00 0.000000e+00 0
0.000000e+00 0.000000e+00 0
0.000000e+00 0.000000e+00 0
0.000000e+00 0.000000e+00 0
0.000000e+00 0.000000e+00 0
0.000000e+00 0.000000e+00 0
0.000000e+00 0.000000e+00 0
0.000000e+00 0.000000e+00 0
0.000000e+00 0.000000e+00 0
0.000000e+00 0.000000e+00 0
0.000000e+00 0.000000e+00 0
0.000000e+00 -5.000000e+01 0
0.000000e+00 -1.000179e+02 0
-9.153299e-03 -1.000215e+02 0
1.993330e-02 -1.000209e+02 0
3.392841e-02 -1.000173e+02 0
3.392841e-02 -5.000000e+01 0
0.000000e+00 0.000000e+00 0
0.000000e+00 0.000000e+00 0
0.000000e+00 0.000000e+00 0
0.000000e+00 0.000000e+00 0
0.000000e+00 0.000000e+00 0
0.000000e+00 0.000000e+00 0
0.000000e+00 0.000000e+00 0
0.000000e+00 0.000000e+00 0
0.000000e+00 0.000000e+00 0
0.000000e+00 0.000000e+00 0
0.000000e+00 0.000000e+00 0
0.000000e+00 0.000000e+00 0
0.000000e+00 0.000000e+00 0
0.000000e+00 0.000000e+00 0
0.000000e+00 -5.000000e+01 0
0.000000e+00 -1.000172e+02 0
-8.345872e-03 -1.000297e+02 0
3.109695e-03 -1.000333e+02 0
6.117755e-03 -1.000207e+02 0
6.117755e-03 -5.000000e+01 0
0.000000e+00 0.000000e+00 0
0.000000e+00 0.000000e+00 0
0.000000e+00 0.000000e+00 0
0.000000e+00 0.000000e+00 0
0.000000e+00 0.000000e+00 0
0.000000e+00 0.000000e+00 0
0.000000e+00 0.000000e+00 0
0.000000e+00 0.000000e+00 0
0.000000e+00 0.000000e+00 0
0.000000e+00 0.000000e+00 0
0.000000e+00 0.000000e+00 0
0.000000e+00 0.000000e+00 0
0.000000e+00 0.000000e+00 0
0.000000e+00 0.000000e+00 0
0.000000e+00 -5.000000e+01 0
0.000000e+00 -1.000148e+02 0
-7.296857e-03 -1.000300e+02 0
-5.293848e-03 -1.000355e+02 0
-8.170718e-03 -1.000203e+02 0
-8.170718e-03 -5.000000e+01 0
0.000000e+00 0.000000e+00 0
0.000000e+00 0.000000e+00 0
0.000000e+00 0.000000e+00 0
0.000000e+00 0.000000e+00 0
0.000000e+00 0.000000e+00 0
0.000000e+00 0.000000e+00 0
0.000000e+00 0.000000e+00 0
0.000000e+00 0.000000e+00 0
0.000000e+00 0.000000e+00 0
0.000000e+00 0.000000e+00 0
0.000000e+00 0.000000e+00 0
0.000000e+00 0.000000e+00 0
0.000000e+00 0.000000e+00 0
0.000000e+00 0.000000e+00 0
0.000000e+00 -5.000000e+01 0
0.000000e+00 -1.000119e+02 0
-5.961784e-03 -1.000264e+02 0
-8.985793e-03 -1.000324e+02 0
-1.498567e-02 -1.000178e+02 0
-1.498567e-02 -5.000000e+01 0
0.000000e+00 0.000000e+00 0
0.000000e+00 0.000000e+00 0
0.000000e+00 0.000000e+00 0
0.000000e+00 0.000000e+00 0
0.000000e+00 0.000000e+00 0
0.000000e+00 0.000000e+00 0
0.000000e+00 0.000000e+00 0
0.000000e+00 0.000000e+00 0
0.000000e+00 0.000000e+00 0
0.000000e+00 0.000000e+00 0
0.000000e+00 0.000000e+00 0
0.000000e+00 0.000000e+00 0
0.000000e+00 0.000000e+00 0
0.000000e+00 0.000000e+00 0
0.000000e+00 -5.000000e+01 0
0.000000e+00 -1.000088e+02 0
-4.321628e-03 -1.000209e+02 0
-9.956443e-03 -1.000264e+02 0
-1.755135e-02 -1.000143e+02 0
-1.755135e-02 -5.000000e+01 0
0.000000e+00 0.000000e+00 0
0.000000e+00 0.000000e+00 0
0.000000e+00 0.000000e+00 0
0.000000e+00 0.000000e+00 0
0.000000e+00 0.000000e+00 0
0.000000e+00 0.000000e+00 0
0.000000e+00 0.000000e+00 0
0.000000e+00 0.000000e+00 0
0.000000e+00 0.000000e+00 0
0.000000e+00 0.000000e+00 0
0.000000e+00 0.000000e+00 0
0.000000e+00 0.000000e+00 0
0.000000e+00 0.000000e+00 0
0.000000e+00 0.000000e+00 0
0.000000e+00 -5.000000e+01 0
0.000000e+00 -1.000060e+02 0
-2.395618e-03 -1.000148e+02 0
-9.203431e-03 -1.000190e+02 0
-1.742319e-02 -1.000102e+02 0
-1.742319e-02 -5.000000e+01 0
0.000000e+00 0.000000e+00 0
0.000000e+00 0.000000e+00 0
0.000000e+00 0.000000e+00 0
0.000000e+00 0.000000e+00 0
0.000000e+00 0.000000e+00 0
0.000000e+00 0.000000e+00 0
0.000000e+00 0.000000e+00 0
0.000000e+00 0.000000e+00 0
0.000000e+00 0.000000e+00 0
0.000000e+00 0.000000e+00 0
0.000000e+00 0.000000e+00 0
0.000000e+00 0.000000e+00 0
0.000000e+00 0.000000e+00 0
0.000000e+00 0.000000e+00 0
0.000000e+00 -5.000000e+01 0
0.000000e+00 -1.000036e+02 0
-3.279386e-04 -1.000089e+02 0
-7.151847e-03 -1.000113e+02 0
-1.505704e-02 -1.000060e+02 0
-1.505704e-02 -5.000000e+01 0
0.000000e+00 0.000000e+00 0
0.000000e+00 0.000000e+00 0
0.000000e+00 0.000000e+00 0
0.000000e+00 0.000000e+00 0
0.000000e+00 0.000000e+00 0
0.000000e+00 0.000000e+00 0
0.000000e+00 0.000000e+00 0
0.000000e+00 0.000000e+00 0
0.000000e+00 0.000000e+00 0
0.000000e+00 0.000000e+00 0
0.000000e+00 0.000000e+00 0
0.000000e+00 0.000000e+00 0
0.000000e+00 0.000000e+00 0
0.000000e+00 0.000000e+00 0
0.000000e+00 -5.000000e+01 0
0.000000e+00 -1.000018e+02 0
1.242169e-03 -1.000037e+02 0
-3.987013e-03 -1.000042e+02 0
-9.940512e-03 -1.000022e+02 0
-9.940512e-03 -5.000000e+01 0
0.000000e+00 0.000000e+00 0
0.000000e+00 0.000000e+00 0
0.000000e+00 0.000000e+00 0
0.000000e+00 0.000000e+00 0
0.000000e+00 0.000000e+00 0
0.000000e+00 0.000000e+00 0
0.000000e+00 0.000000e+00 0
0.000000e+00 0.000000e+00 0
0.000000e+00 0.000000e+00 0
0.000000e+00 0.000000e+00 0
0.000000e+00 0.000000e+00 0
0.000000e+00 0.000000e+00 0
0.000000e+00 0.000000e+00 0
0.000000e+00 0.000000e+00 0
0.000000e+00 -5.000000e+01 0
0.000000e+00 -1.000000e+02 0
7.435255e-18 -1.000000e+02 0
-8.952654e-18 -1.000000e+02 0
-2.767021e-17 -1.000000e+02 0
-2.792014e-17 -5.000000e+01 0
0.000000e+00 0.000000e+00 0
0.000000e+00 0.000000e+00 0
0.000000e+00 0.000000e+00 0
0.000000e+00 0.000000e+00 0
0.000000e+00 0.000000e+00 0
0.000000e+00 0.000000e+00 0
0.000000e+00 0.000000e+00 0
</DataArray>
<DataArray Name="Type and Neighbourhood" type="Float64" format="ascii" NumberOfComponents="3">
1.100000e+01 8.000000e+00 0
1.000000e+01 0.000000e+00 0
1.100000e+01 2.000000e+00 0
0.000000e+00 0.000000e+00 0
0.000000e+00 0.000000e+00 0
0.000000e+00 0.000000e+00 0
0.000000e+00 0.000000e+00 0
0.000000e+00 0.000000e+00 0
0.000000e+00 0.000000e+00 0
0.000000e+00 0.000000e+00 0
0.000000e+00 0.000000e+00 0