<?xml version="1.0"?>
<VTKFile type="StructuredGrid">
<StructuredGrid WholeExtent="0 19 0 33 0 0 ">
<Piece Extent="0 19 0 33 0 0 ">
<Points>
<DataArray type="Float64" format="ascii" NumberOfComponents="3">
0.000000e+00 0.000000e+00 0.000000e+00
1.052632e-01 0.000000e+00 0.000000e+00
2.105263e-01 0.000000e+00 0.000000e+00
3.157895e-01 0.000000e+00 0.000000e+00
4.210526e-01 0.000000e+00 0.000000e+00
5.263158e-01 0.000000e+00 0.000000e+00
6.315789e-01 0.000000e+00 0.000000e+00
7.368421e-01 0.000000e+00 0.000000e+00
8.421053e-01 0.000000e+00 0.000000e+00
9.473684e-01 0.000000e+00 0.000000e+00
1.052632e+00 0.000000e+00 0.000000e+00
1.157895e+00 0.000000e+00 0.000000e+00
1.263158e+00 0.000000e+00 0.000000e+00
1.368421e+00 0.000000e+00 0.000000e+00
1.473684e+00 0.000000e+00 0.000000e+00
1.578947e+00 0.000000e+00 0.000000e+00
1.684211e+00 0.000000e+00 0.000000e+00
1.789474e+00 0.000000e+00 0.000000e+00
1.894737e+00 0.000000e+00 0.000000e+00
2.000000e+00 0.000000e+00 0.000000e+00
0.000000e+00 1.060606e-01 0.000000e+00
1.052632e-01 1.060606e-01 0.000000e+00
2.105263e-01 1.060606e-01 0.000000e+00
3.157895e-01 1.060606e-01 0.000000e+00
4.210526e-01 1.060606e-01 0.000000e+00
5.263158e-01 1.060606e-01 0.000000e+00
6.315789e-01 1.060606e-01 0.000000e+00
7.368421e-01 1.060606e-01 0.000000e+00
8.421053e-01 1.060606e-01 0.000000e+00
9.473684e-01 1.060606e-01 0.000000e+00
1.052632e+00 1.060606e-01 0.000000e+00
1.157895e+00 1.060606e-01 0.000000e+00
1.263158e+00 1.060606e-01 0.000000e+00
1.368421e+00 1.060606e-01 0.000000e+00
1.473684e+00 1.060606e-01 0.000000e+00
1.578947e+00 1.060606e-01 0.000000e+00
1.684211e+00 1.060606e-01 0.000000e+00
1.789474e+00 1.060606e-01 0.000000e+00
1.894737e+00 1.060606e-01 0.000000e+00
2.000000e+00 1.060606e-01 0.000000e+00
0.000000e+00 2.121212e-01 0.000000e+00
1.052632e-01 2.121212e-01 0.000000e+00
2.105263e-01 2.121212e-01 0.000000e+00
3.157895e-01 2.121212e-01 0.000000e+00
4.210526e-01 2.121212e-01 0.000000e+00
5.263158e-01 2.121212e-01 0.000000e+00
6.315789e-01 2.121212e-01 0.000000e+00
7.368421e-01 2.121212e-01 0.000000e+00
8.421053e-01 2.121212e-01 0.000000e+00
9.473684e-01 2.121212e-01 0.000000e+00
1.052632e+00 2.121212e-01 0.000000e+00
1.157895e+00 2.121212e-01 0.000000e+00
1.263158e+00 2.121212e-01 0.000000e+00
1.368421e+00 2.121212e-01 0.000000e+00
1.473684e+00 2.121212e-01 0.000000e+00
1.578947e+00 2.121212e-01 0.000000e+00
1.684211e+00 2.121212e-01 0.000000e+00
1.789474e+00 2.121212e-01 0.000000e+00
1.894737e+00 2.121212e-01 0.000000e+00
2.000000e+00 2.121212e-01 0.000000e+00
0.000000e+00 3.181818e-01 0.000000e+00
1.052632e-01 3.181818e-01 0.000000e+00
2.105263e-01 3.181818e-01 0.000000e+00
3.157895e-01 3.181818e-01 0.000000e+00
4.210526e-01 3.181818e-01 0.000000e+00
5.263158e-01 3.181818e-01 0.000000e+00
6.315789e-01 3.181818e-01 0.000000e+00
7.368421e-01 3.181818e-01 0.000000e+00
8.421053e-01 3.181818e-01 0.000000e+00
9.473684e-01 3.181818e-01 0.000000e+00
1.052632e+00 3.181818e-01 0.000000e+00
1.157895e+00 3.181818e-01 0.000000e+00
1.263158e+00 3.181818e-01 0.000000e+00
1.368421e+00 3.181818e-01 0.000000e+00
1.473684e+00 3.181818e-01 0.000000e+00
1.578947e+00 3.181818e-01 0.000000e+00
1.684211e+00 3.181818e-01 0.000000e+00
1.789474e+00 3.181818e-01 0.000000e+00
1.894737e+00 3.181818e-01 0.000000e+00
2.000000e+00 3.181818e-01 0.000000e+00
0.000000e+00 4.242424e-01 0.000000e+00
1.052632e-01 4.242424e-01 0.000000e+00
2.105263e-01 4.242424e-01 0.000000e+00
3.157895e-01 4.242424e-01 0.000000e+00
4.210526e-01 4.242424e-01 0.000000e+00
5.263158e-01 4.242424e-01 0.000000e+00
6.315789e-01 4.242424e-01 0.000000e+00
7.368421e-01 4.242424e-01 0.000000e+00
8.421053e-01 4.242424e-01 0.000000e+00
9.473684e-01 4.242424e-01 0.000000e+00
1.052632e+00 4.242424e-01 0.000000e+00
1.157895e+00 4.242424e-01 0.000000e+00
1.263158e+00 4.242424e-01 0.000000e+00
1.368421e+00 4.242424e-01 0.000000e+00
1.473684e+00 4.242424e-01 0.000000e+00
1.578947e+00 4.242424e-01 0.000000e+00
1.684211e+00 4.242424e-01 0.000000e+00
1.789474e+00 4.242424e-01 0.000000e+00
1.894737e+00 4.242424e-01 0.000000e+00
2.000000e+00 4.242424e-01 0.000000e+00
0.000000e+00 5.303030e-01 0.000000e+00
1.052632e-01 5.303030e-01 0.000000e+00
2.105263e-01 5.303030e-01 0.000000e+00
3.157895e-01 5.303030e-01 0.000000e+00
4.210526e-01 5.303030e-01 0.000000e+00
5.263158e-01 5.303030e-01 0.000000e+00
6.315789e-01 5.303030e-01 0.000000e+00
7.368421e-01 5.303030e-01 0.000000e+00
8.421053e-01 5.303030e-01 0.000000e+00
9.473684e-01 5.303030e-01 0.000000e+00
1.052632e+00 5.303030e-01 0.000000e+00
1.157895e+00 5.303030e-01 0.000000e+00
1.263158e+00 5.303030e-01 0.000000e+00
1.368421e+00 5.303030e-01 0.000000e+00
1.473684e+00 5.303030e-01 0.000000e+00
1.578947e+00 5.303030e-01 0.000000e+00
1.684211e+00 5.303030e-01 0.000000e+00
1.789474e+00 5.303030e-01 0.000000e+00
1.894737e+00 5.303030e-01 0.000000e+00
2.000000e+00 5.303030e-01 0.000000e+00
0.000000e+00 6.363636e-01 0.000000e+00
1.052632e-01 6.363636e-01 0.000000e+00
2.105263e-01 6.363636e-01 0.000000e+00
3.157895e-01 6.363636e-01 0.000000e+00
4.210526e-01 6.363636e-01 0.000000e+00
5.263158e-01 6.363636e-01 0.000000e+00
6.315789e-01 6.363636e-01 0.000000e+00
7.368421e-01 6.363636e-01 0.000000e+00
8.421053e-01 6.363636e-01 0.000000e+00
9.473684e-01 6.363636e-01 0.000000e+00
1.052632e+00 6.363636e-01 0.000000e+00
1.157895e+00 6.363636e-01 0.000000e+00
1.263158e+00 6.363636e-01 0.000000e+00
1.368421e+00 6.363636e-01 0.000000e+00
1.473684e+00 6.363636e-01 0.000000e+00
1.578947e+00 6.363636e-01 0.000000e+00
1.684211e+00 6.363636e-01 0.000000e+00
1.789474e+00 6.363636e-01 0.000000e+00
1.894737e+00 6.363636e-01 0.000000e+00
2.000000e+00 6.363636e-01 0.000000e+00
0.000000e+00 7.424242e-01 0.000000e+00
1.052632e-01 7.424242e-01 0.000000e+00
2.105263e-01 7.424242e-01 0.000000e+00
3.157895e-01 7.424242e-01 0.000000e+00
4.210526e-01 7.424242e-01 0.000000e+00
5.263158e-01 7.424242e-01 0.000000e+00
6.315789e-01 7.424242e-01 0.000000e+00
7.368421e-01 7.424242e-01 0.000000e+00
8.421053e-01 7.424242e-01 0.000000e+00
9.473684e-01 7.424242e-01 0.000000e+00
1.052632e+00 7.424242e-01 0.000000e+00
1.157895e+00 7.424242e-01 0.000000e+00
1.263158e+00 7.424242e-01 0.000000e+00
1.368421e+00 7.424242e-01 0.000000e+00
1.473684e+00 7.424242e-01 0.000000e+00
1.578947e+00 7.424242e-01 0.000000e+00
1.684211e+00 7.424242e-01 0.000000e+00
1.789474e+00 7.424242e-01 0.000000e+00
1.894737e+00 7.424242e-01 0.000000e+00
2.000000e+00 7.424242e-01 0.000000e+00
0.000000e+00 8.484848e-01 0.000000e+00
1.052632e-01 8.484848e-01 0.000000e+00
2.105263e-01 8.484848e-01 0.000000e+00
3.157895e-01 8.484848e-01 0.000000e+00
4.210526e-01 8.484848e-01 0.000000e+00
5.263158e-01 8.484848e-01 0.000000e+00
6.315789e-01 8.484848e-01 0.000000e+00
7.368421e-01 8.484848e-01 0.000000e+00
8.421053e-01 8.484848e-01 0.000000e+00
9.473684e-01 8.484848e-01 0.000000e+00
1.052632e+00 8.484848e-01 0.000000e+00
1.157895e+00 8.484848e-01 0.000000e+00
1.263158e+00 8.484848e-01 0.000000e+00
1.368421e+00 8.484848e-01 0.000000e+00
1.473684e+00 8.484848e-01 0.000000e+00
1.578947e+00 8.484848e-01 0.000000e+00
1.684211e+00 8.484848e-01 0.000000e+00
1.789474e+00 8.484848e-01 0.000000e+00
1.894737e+00 8.484848e-01 0.000000e+00
2.000000e+00 8.484848e-01 0.000000e+00
0.000000e+00 9.545455e-01 0.000000e+00
1.052632e-01 9.545455e-01 0.000000e+00
2.105263e-01 9.545455e-01 0.000000e+00
3.157895e-01 9.545455e-01 0.000000e+00
4.210526e-01 9.545455e-01 0.000000e+00
5.263158e-01 9.545455e-01 0.000000e+00
6.315789e-01 9.545455e-01 0.000000e+00
7.368421e-01 9.545455e-01 0.000000e+00
8.421053e-01 9.545455e-01 0.000000e+00
9.473684e-01 9.545455e-01 0.000000e+00
1.052632e+00 9.545455e-01 0.000000e+00
1.157895e+00 9.545455e-01 0.000000e+00
1.263158e+00 9.545455e-01 0.000000e+00
1.368421e+00 9.545455e-01 0.000000e+00
1.473684e+00 9.545455e-01 0.000000e+00
1.578947e+00 9.545455e-01 0.000000e+00
1.684211e+00 9.545455e-01 0.000000e+00
1.789474e+00 9.545455e-01 0.000000e+00
1.894737e+00 9.545455e-01 0.000000e+00
2.000000e+00 9.545455e-01 0.000000e+00
0.000000e+00 1.060606e+00 0.000000e+00
1.052632e-01 1.060606e+00 0.000000e+00
2.105263e-01 1.060606e+00 0.000000e+00
3.157895e-01 1.060606e+00 0.000000e+00
4.210526e-01 1.060606e+00 0.000000e+00
5.263158e-01 1.060606e+00 0.000000e+00
6.315789e-01 1.060606e+00 0.000000e+00
7.368421e-01 1.060606e+00 0.000000e+00
8.421053e-01 1.060606e+00 0.000000e+00
9.473684e-01 1.060606e+00 0.000000e+00
1.052632e+00 1.060606e+00 0.000000e+00
1.157895e+00 1.060606e+00 0.000000e+00
1.263158e+00 1.060606e+00 0.000000e+00
1.368421e+00 1.060606e+00 0.000000e+00
1.473684e+00 1.060606e+00 0.000000e+00
1.578947e+00 1.060606e+00 0.000000e+00
1.684211e+00 1.060606e+00 0.000000e+00
1.789474e+00 1.060606e+00 0.000000e+00
1.894737e+00 1.060606e+00 0.000000e+00
2.000000e+00 1.060606e+00 0.000000e+00
0.000000e+00 1.166667e+00 0.000000e+00
1.052632e-01 1.166667e+00 0.000000e+00
2.105263e-01 1.166667e+00 0.000000e+00
3.157895e-01 1.166667e+00 0.000000e+00
4.210526e-01 1.166667e+00 0.000000e+00
5.263158e-01 1.166667e+00 0.000000e+00
6.315789e-01 1.166667e+00 0.000000e+00
7.368421e-01 1.166667e+00 0.000000e+00
8.421053e-01 1.166667e+00 0.000000e+00
9.473684e-01 1.166667e+00 0.000000e+00
1.052632e+00 1.166667e+00 0.000000e+00
1.157895e+00 1.166667e+00 0.000000e+00
1.263158e+00 1.166667e+00 0.000000e+00
1.368421e+00 1.166667e+00 0.000000e+00
1.473684e+00 1.166667e+00 0.000000e+00
1.578947e+00 1.166667e+00 0.000000e+00
1.684211e+00 1.166667e+00 0.000000e+00
1.789474e+00 1.166667e+00 0.000000e+00
1.894737e+00 1.166667e+00 0.000000e+00
2.000000e+00 1.166667e+00 0.000000e+00
0.000000e+00 1.272727e+00 0.000000e+00
1.052632e-01 1.272727e+00 0.000000e+00
2.105263e-01 1.272727e+00 0.000000e+00
3.157895e-01 1.272727e+00 0.000000e+00
4.210526e-01 1.272727e+00 0.000000e+00
5.263158e-01 1.272727e+00 0.000000e+00
6.315789e-01 1.272727e+00 0.000000e+00
7.368421e-01 1.272727e+00 0.000000e+00
8.421053e-01 1.272727e+00 0.000000e+00
9.473684e-01 1.272727e+00 0.000000e+00
1.052632e+00 1.272727e+00 0.000000e+00
[...]
<PointData>
<DataArray Name="Velocity" type="Float64" format="ascii" NumberOfComponents="3">
0.000000e+00 0.000000e+00 0
0.000000e+00 0.000000e+00 0
-2.065791e+01 0.000000e+00 0
0.000000e+00 0.000000e+00 0
0.000000e+00 0.000000e+00 0
0.000000e+00 0.000000e+00 0
0.000000e+00 0.000000e+00 0
0.000000e+00 0.000000e+00 0
0.000000e+00 0.000000e+00 0
0.000000e+00 0.000000e+00 0
0.000000e+00 0.000000e+00 0
2.465675e-16 0.000000e+00 0
0.000000e+00 0.000000e+00 0
0.000000e+00 0.000000e+00 0
0.000000e+00 0.000000e+00 0
-8.919413e-16 0.000000e+00 0
0.000000e+00 0.000000e+00 0
0.000000e+00 0.000000e+00 0
0.000000e+00 0.000000e+00 0
0.000000e+00 0.000000e+00 0
0.000000e+00 0.000000e+00 0
-2.084230e+01 2.040331e+01 0
-3.924669e+01 1.620878e+01 0
-5.512295e+01 1.109800e+01 0
-6.398356e+01 3.019531e+00 0
-6.302646e+01 -5.205736e+00 0
-5.395680e+01 -1.462890e+01 0
-3.591776e+01 -2.513820e+01 0
-8.979038e+00 -3.371356e+01 0
2.084641e+01 -3.181507e+01 0
4.576519e+01 -2.305099e+01 0
6.628558e+01 -1.322660e+01 0
7.530240e+01 -1.756901e+00 0
7.329677e+01 7.138349e+00 0
6.301920e+01 1.173413e+01 0
5.034305e+01 1.240546e+01 0
3.830495e+01 1.079291e+01 0
2.856488e+01 1.301487e+01 0
1.861165e+01 1.615753e+01 0
0.000000e+00 -3.356244e-14 0
0.000000e+00 0.000000e+00 0
-1.746676e+01 3.682563e+01 0
-3.490554e+01 2.971098e+01 0
-4.813926e+01 1.752557e+01 0
-5.307861e+01 4.982972e+00 0
-5.223274e+01 -1.010272e+01 0
-4.481620e+01 -2.731408e+01 0
-3.036460e+01 -4.531850e+01 0
-9.896174e+00 -5.719420e+01 0
1.047386e+01 -5.515896e+01 0
3.128863e+01 -4.578340e+01 0
5.283220e+01 -2.976097e+01 0
6.517420e+01 -7.064303e+00 0
6.509539e+01 1.237626e+01 0
5.545344e+01 2.312761e+01 0
4.550557e+01 2.490148e+01 0
3.318439e+01 2.194316e+01 0
2.262924e+01 1.984249e+01 0
1.534215e+01 2.878128e+01 0
0.000000e+00 -7.955541e-14 0
0.000000e+00 0.000000e+00 0
-1.480065e+01 5.046246e+01 0
-2.835150e+01 3.989182e+01 0
-3.703241e+01 2.499046e+01 0
-4.118684e+01 7.144027e+00 0
-4.050997e+01 -1.353074e+01 0
-3.650029e+01 -3.666271e+01 0
-2.638604e+01 -6.032277e+01 0
-1.134576e+01 -7.486141e+01 0
3.740830e+00 -7.331188e+01 0
1.915330e+01 -6.573023e+01 0
3.725071e+01 -4.736888e+01 0
4.254002e+01 -1.411299e+01 0
3.019233e+01 1.693275e+01 0
2.553789e+01 3.014920e+01 0
4.497027e+01 3.352008e+01 0
3.903940e+01 3.384255e+01 0
2.472040e+01 3.099228e+01 0
1.083731e+01 3.895820e+01 0
0.000000e+00 -9.944426e-14 0
0.000000e+00 0.000000e+00 0
-1.095140e+01 6.258837e+01 0
-2.023589e+01 4.930763e+01 0
-2.602861e+01 3.045815e+01 0
-2.780218e+01 8.486874e+00 0
-2.485301e+01 -1.482478e+01 0
-2.737923e+01 -4.154501e+01 0
-2.250150e+01 -7.066359e+01 0
-1.204995e+01 -8.754930e+01 0
-1.872705e+00 -8.588908e+01 0
7.877495e+00 -7.954714e+01 0
1.846552e+01 -5.332486e+01 0
1.689135e+01 -1.441451e+01 0
0.000000e+00 0.000000e+00 0
2.305994e+01 1.510407e+01 0
2.305994e+01 3.320918e+01 0
2.336851e+01 4.099094e+01 0
2.742690e+01 4.690273e+01 0
1.255386e+01 5.368895e+01 0
0.000000e+00 -1.243053e-13 0
0.000000e+00 0.000000e+00 0
-7.578458e+00 7.085165e+01 0
-1.329731e+01 5.508325e+01 0
-1.624206e+01 3.261408e+01 0
-1.559216e+01 5.959525e+00 0
-4.267415e+00 -1.395690e+01 0
-1.553757e+01 -3.903204e+01 0
-1.865058e+01 -7.576817e+01 0
-1.228128e+01 -9.564648e+01 0
-6.190417e+00 -9.339029e+01 0
-1.365286e+00 -8.622253e+01 0
1.015897e+00 -5.645102e+01 0
4.035917e+00 -1.441451e+01 0
0.000000e+00 -2.140872e+01 0
2.305994e+01 -2.140872e+01 0
2.017323e-02 1.738138e-14 0
0.000000e+00 2.288584e+01 0
1.280691e+01 5.229091e+01 0
9.665004e+00 6.544651e+01 0
0.000000e+00 -1.591108e-13 0
0.000000e+00 0.000000e+00 0
-5.054135e+00 7.598642e+01 0
-8.080169e+00 5.803686e+01 0
-8.938042e+00 3.277039e+01 0
-6.472896e+00 -3.578492e+00 0
2.266952e+00 -1.487979e+01 0
-4.335352e+00 -2.711572e+01 0
-1.695735e+01 -7.400740e+01 0
-1.214718e+01 -1.001039e+02 0
-8.816438e+00 -9.688777e+01 0
-7.105133e+00 -8.680805e+01 0
-7.097731e+00 -6.263159e+01 0
-9.804839e-01 -2.133766e+01 0
0.000000e+00 -2.142437e+01 0
0.000000e+00 -2.143084e+01 0
2.017323e-02 -2.211606e-02 0
0.000000e+00 0.000000e+00 0
0.000000e+00 3.247250e+01 0
4.531189e+00 7.148692e+01 0
0.000000e+00 -1.690552e-13 0
0.000000e+00 0.000000e+00 0
-3.366314e+00 7.899303e+01 0
-4.928671e+00 5.899658e+01 0
-4.919923e+00 3.099463e+01 0
-2.389993e+00 -5.330356e+00 0
-1.221601e+00 -1.305689e+01 0
0.000000e+00 -2.416800e+01 0
-1.322891e+01 -7.491591e+01 0
-1.083954e+01 -1.033082e+02 0
-9.554135e+00 -9.847053e+01 0
-9.847340e+00 -8.795426e+01 0
-9.403672e+00 -6.648668e+01 0
9.228564e-01 -4.987722e+01 0
0.000000e+00 -4.684324e+01 0
-2.124573e+01 -2.140872e+01 0
-2.042000e-14 0.000000e+00 0
-9.680370e+00 0.000000e+00 0
-1.840460e+00 3.029479e+01 0
1.389690e+00 7.063581e+01 0
0.000000e+00 -1.690552e-13 0
0.000000e+00 0.000000e+00 0
-2.242573e+00 8.095243e+01 0
-3.237887e+00 5.960224e+01 0
-3.491902e+00 3.021248e+01 0
-2.700664e+00 6.929301e+00 0
0.000000e+00 0.000000e+00 0
0.000000e+00 -1.050680e-03 0
-6.433655e+00 -5.041449e+01 0
-8.190586e+00 -1.030979e+02 0
-8.221619e+00 -9.788748e+01 0
-9.292450e+00 -8.695965e+01 0
-8.786267e+00 -7.472852e+01 0
2.275447e+00 -5.686705e+01 0
1.803276e+01 -2.389717e+01 0
-2.564145e+01 -2.036268e-03 0
-1.437334e-14 -3.947896e-03 0
-6.813872e+00 1.262837e+01 0
-2.553533e+00 4.111060e+01 0
-1.263857e-01 6.902285e+01 0
0.000000e+00 -1.690552e-13 0
0.000000e+00 0.000000e+00 0
-1.379767e+00 8.225545e+01 0
-1.920428e+00 6.025537e+01 0
-2.414607e+00 3.045334e+01 0
-2.414607e+00 6.929301e+00 0
0.000000e+00 0.000000e+00 0
0.000000e+00 -1.050680e-03 0
-4.112098e+00 -4.863309e+01 0
-5.659293e+00 -1.011610e+02 0
-5.657116e+00 -9.736032e+01 0
-5.593222e+00 -8.738533e+01 0
-3.545296e+00 -7.938735e+01 0
2.391441e+00 -4.504579e+01 0
2.299720e+01 -2.240466e+01 0
4.289677e+00 -1.419223e+01 0
-4.393916e+00 -5.759810e-03 0
2.866498e+00 1.623325e+01 0
-3.996871e+00 4.417000e+01 0
-1.548074e+00 6.814468e+01 0
0.000000e+00 -1.690552e-13 0
0.000000e+00 0.000000e+00 0
-9.030774e-01 8.288740e+01 0
-5.506565e-01 6.064492e+01 0
2.724897e+00 3.071040e+01 0
2.724897e+00 6.929301e+00 0
0.000000e+00 0.000000e+00 0
0.000000e+00 -1.050680e-03 0
-5.621871e+00 -4.811761e+01 0
-3.756666e+00 -1.008032e+02 0
-3.333041e+00 -9.795406e+01 0
-1.856486e+00 -8.908747e+01 0
1.436225e+00 -8.277367e+01 0
7.142430e+00 -5.051184e+01 0
2.239687e+01 -2.949959e+01 0
2.526736e+01 -3.306712e+01 0
-4.393916e+00 -1.512574e+01 0
0.000000e+00 1.340574e+01 0
-5.599602e+00 3.938661e+01 0
-2.662744e+00 6.496564e+01 0
0.000000e+00 -1.690552e-13 0
0.000000e+00 0.000000e+00 0
-1.350477e+00 8.281028e+01 0
-3.021997e+00 5.659992e+01 0
-1.781642e+01 2.715297e+01 0
3.607232e+00 6.929301e+00 0
0.000000e+00 0.000000e+00 0
0.000000e+00 -1.050680e-03 0
-3.271332e+00 -4.930600e+01 0
-1.450337e+00 -1.022608e+02 0
-1.942087e+00 -9.927490e+01 0
1.289766e-01 -9.219073e+01 0
3.964636e+00 -8.845444e+01 0
1.046946e+01 -6.616522e+01 0
2.376977e+01 -4.066689e+01 0
6.981401e+00 -1.708447e+01 0
-1.138766e+00 7.672478e-14 0
5.717699e+00 2.137808e+01 0
-6.565047e+00 4.577673e+01 0
-3.182091e+00 6.192941e+01 0
0.000000e+00 -1.591108e-13 0
0.000000e+00 0.000000e+00 0
-1.534968e+00 8.593229e+01 0
-4.664809e+00 7.723561e+01 0
-2.298992e+01 3.868760e+01 0
0.000000e+00 0.000000e+00 0
0.000000e+00 0.000000e+00 0
0.000000e+00 0.000000e+00 0
0.000000e+00 -5.000000e+01 0
0.000000e+00 -1.027137e+02 0
-1.563005e+00 -1.000679e+02 0
8.580867e-02 -9.503894e+01 0
2.339963e+00 -9.319250e+01 0
3.016401e+00 -7.046702e+01 0
-5.756482e+00 -2.519381e+01 0
-3.271805e+01 1.369900e+01 0
-2.130272e+01 3.664793e+01 0
9.200001e+00 5.276012e+01 0
5.552233e+00 5.191512e+01 0
6.504986e-01 5.764798e+01 0
0.000000e+00 -1.491664e-13 0
0.000000e+00 0.000000e+00 0
-1.632367e+00 8.751043e+01 0
-3.043790e+00 7.821741e+01 0
-3.043790e+00 3.868760e+01 0
0.000000e+00 0.000000e+00 0
0.000000e+00 0.000000e+00 0
0.000000e+00 0.000000e+00 0
0.000000e+00 -5.000000e+01 0
0.000000e+00 -1.023489e+02 0
-1.654195e+00 -1.003293e+02 0
-6.984141e-01 -9.612326e+01 0
2.162267e-02 -9.140724e+01 0
-2.515144e+00 -5.800744e+01 0
-1.209382e+01 -2.729487e+00 0
-3.806405e+01 2.297120e+01 0
-2.016395e+01 5.001759e+01 0
1.214428e+01 6.273865e+01 0
1.596941e+01 5.283537e+01 0
4.135453e+00 6.734290e+01 0
0.000000e+00 -1.591108e-13 0
0.000000e+00 0.000000e+00 0
1.025043e+00 8.899914e+01 0
-5.955555e-02 7.865772e+01 0
-8.108229e+00 3.868760e+01 0
0.000000e+00 0.000000e+00 0
0.000000e+00 0.000000e+00 0
0.000000e+00 0.000000e+00 0
0.000000e+00 -5.000000e+01 0
0.000000e+00 -1.019131e+02 0
-1.790409e+00 -1.002303e+02 0
-1.324552e+00 -9.672746e+01 0
-9.403523e-01 -9.136200e+01 0
6.032827e-01 -4.295175e+01 0
-1.744086e+00 1.123113e+01 0
-1.911381e+01 1.123113e+01 0
-3.700297e+01 -6.950905e+00 0
8.661978e+00 -1.390181e+01 0
6.167938e+00 2.666131e+01 0
1.617278e+01 7.195620e+01 0
0.000000e+00 -1.591108e-13 0
0.000000e+00 2.569781e-15 0
1.455568e+01 8.757043e+01 0
1.933129e+00 8.741987e+01 0
1.933129e+00 4.679725e+01 0
0.000000e+00 0.000000e+00 0
0.000000e+00 0.000000e+00 0
0.000000e+00 0.000000e+00 0
0.000000e+00 -5.000000e+01 0
0.000000e+00 -1.013989e+02 0
-1.964580e+00 -9.984868e+01 0
-1.881751e+00 -9.697976e+01 0
-1.941123e+00 -9.405524e+01 0
-4.211125e-01 -5.153086e+01 0
-3.329191e+00 7.667039e+00 0
-2.482740e+01 4.371240e+01 0
-3.700297e+01 3.003975e+01 0
0.000000e+00 0.000000e+00 0
0.000000e+00 3.361221e+01 0
2.269432e+01 8.039686e+01 0
0.000000e+00 -1.889441e-13 0
0.000000e+00 1.227467e+00 0
1.249012e+01 8.095794e+01 0
-1.281382e+01 8.528247e+01 0
-4.765147e+00 3.868760e+01 0
0.000000e+00 0.000000e+00 0
0.000000e+00 0.000000e+00 0
0.000000e+00 0.000000e+00 0
0.000000e+00 -5.000000e+01 0
0.000000e+00 -1.008258e+02 0
-2.041293e+00 -9.922649e+01 0
-2.245609e+00 -9.675109e+01 0
-2.986715e+00 -9.353927e+01 0
-3.315427e+00 -5.119445e+01 0
-1.598226e+01 8.219035e-01 0
-2.066015e+01 6.827508e+00 0
-2.887564e-14 0.000000e+00 0
-1.368888e+01 0.000000e+00 0
0.000000e+00 3.361221e+01 0
8.267470e+00 8.737655e+01 0
0.000000e+00 -2.287218e-13 0
0.000000e+00 0.000000e+00 0
0.000000e+00 5.875510e+01 0
-2.433101e+01 9.744270e+01 0
-2.117692e+01 3.868760e+01 0
0.000000e+00 0.000000e+00 0
0.000000e+00 0.000000e+00 0
0.000000e+00 0.000000e+00 0
0.000000e+00 -5.000000e+01 0
0.000000e+00 -1.002763e+02 0
-1.818513e+00 -9.852021e+01 0
-1.912687e+00 -9.602718e+01 0
-2.683795e+00 -9.297732e+01 0
-2.393725e+00 -3.843686e+01 0
-2.161175e+01 6.757190e+00 0
-1.561677e+01 0.000000e+00 0
-1.368888e+01 -3.458756e+00 0
-2.737776e+01 -3.458756e+00 0
0.000000e+00 0.000000e+00 0
-7.649292e+00 5.723714e+01 0
0.000000e+00 -2.386662e-13 0
0.000000e+00 0.000000e+00 0
-4.896951e+00 6.097682e+01 0
-1.885172e+01 6.097503e+01 0
-1.569587e+01 -1.789999e-03 0
0.000000e+00 0.000000e+00 0
0.000000e+00 0.000000e+00 0
0.000000e+00 0.000000e+00 0
0.000000e+00 -5.000000e+01 0
0.000000e+00 -9.991235e+01 0
-1.247933e+00 -9.821813e+01 0
-7.173530e-01 -9.587926e+01 0
-1.287945e-02 -9.305459e+01 0
2.533081e+00 -3.201957e+01 0
-6.537101e+00 2.494120e+01 0
-1.493928e+01 2.356455e+00 0
-1.368888e+01 -1.258197e+01 0
-1.307445e+01 -3.458756e+00 0
0.000000e+00 1.469619e+01 0
-1.223104e+01 6.729382e+01 0
0.000000e+00 -2.187774e-13 0
0.000000e+00 0.000000e+00 0
-6.977783e+00 1.031155e+02 0
-1.746713e+01 6.104142e+01 0
-7.847936e+00 -3.563992e-03 0
0.000000e+00 0.000000e+00 0
0.000000e+00 0.000000e+00 0
0.000000e+00 0.000000e+00 0
0.000000e+00 -5.000000e+01 0
0.000000e+00 -9.981387e+01 0
-6.408094e-01 -9.859238e+01 0
3.392950e-01 -9.727159e+01 0
2.101147e+00 -9.625237e+01 0
5.596883e+00 -3.175969e+01 0
3.156674e+00 2.747928e+01 0
3.156674e+00 1.147967e+01 0
1.296088e-15 -4.077838e+00 0
6.144274e-01 -4.077838e+00 0
-5.506405e-01 1.404702e+01 0
-7.275713e+00 6.290733e+01 0
0.000000e+00 -2.088330e-13 0
0.000000e+00 0.000000e+00 0
-1.922513e+00 1.130680e+02 0
-1.355176e+01 6.863868e+01 0
0.000000e+00 0.000000e+00 0
0.000000e+00 0.000000e+00 0
0.000000e+00 0.000000e+00 0
0.000000e+00 0.000000e+00 0
0.000000e+00 -5.000000e+01 0
0.000000e+00 -9.985978e+01 0
-2.778427e-01 -9.915308e+01 0
5.824867e-01 -9.864198e+01 0
1.874582e+00 -9.835201e+01 0
3.240042e+00 -3.308310e+01 0
2.479183e+00 2.739990e+01 0
2.479183e+00 1.147967e+01 0
-2.554150e+01 0.000000e+00 0
-2.554150e+01 1.777179e+01 0
-1.782041e-01 3.459697e+01 0
-5.094173e+00 6.297111e+01 0
0.000000e+00 -1.988885e-13 0
0.000000e+00 0.000000e+00 0
-8.194591e-01 1.170321e+02 0
-9.891214e+00 7.276233e+01 0
0.000000e+00 0.000000e+00 0
0.000000e+00 0.000000e+00 0
0.000000e+00 0.000000e+00 0
0.000000e+00 0.000000e+00 0
0.000000e+00 -5.000000e+01 0
0.000000e+00 -9.992993e+01 0
-1.382276e-01 -9.957529e+01 0
3.846409e-01 -9.944032e+01 0
9.521697e-01 -9.893006e+01 0
1.175107e+00 -4.913510e+01 0
3.372631e-01 -1.508167e-17 0
0.000000e+00 -1.811914e-03 0
-2.493992e+01 1.776397e+01 0
-3.136835e+01 3.223163e+01 0
-2.537143e+00 3.408467e+01 0
-6.358883e+00 6.334637e+01 0
0.000000e+00 -1.839719e-13 0
0.000000e+00 0.000000e+00 0
-9.777789e-01 1.233492e+02 0
-1.244221e+01 7.809423e+01 0
-6.485323e+00 0.000000e+00 0
0.000000e+00 0.000000e+00 0
0.000000e+00 0.000000e+00 0
0.000000e+00 0.000000e+00 0
0.000000e+00 -5.000000e+01 0
0.000000e+00 -9.997156e+01 0
-1.000307e-01 -9.979169e+01 0
1.387776e-01 -9.974064e+01 0
2.094760e-01 -9.919230e+01 0
5.519652e-01 -4.927539e+01 0
3.372631e-01 -3.601913e-03 0
0.000000e+00 -1.811914e-03 0
6.015777e-01 2.175405e+01 0
-5.826850e+00 3.328234e+01 0
-3.911720e+00 3.220235e+01 0
-3.451618e+00 6.041475e+01 0
0.000000e+00 -1.690552e-13 0
0.000000e+00 -1.477073e+00 0
0.000000e+00 1.106488e+02 0
-6.485323e+00 1.040815e+02 0
-6.485323e+00 3.868760e+01 0
0.000000e+00 0.000000e+00 0
0.000000e+00 0.000000e+00 0
0.000000e+00 0.000000e+00 0
0.000000e+00 -5.000000e+01 0
0.000000e+00 -9.998594e+01 0
-6.721520e-02 -9.987192e+01 0
6.234395e-02 -9.975217e+01 0
1.126098e-01 -9.939022e+01 0
8.353422e-01 -4.952403e+01 0
0.000000e+00 0.000000e+00 0
0.000000e+00 2.175586e+01 0
0.000000e+00 4.351172e+01 0
0.000000e+00 3.483430e+01 0
-1.002141e+00 3.223368e+01 0
-1.153290e+01 5.940501e+01 0
0.000000e+00 -1.789997e-13 0
0.000000e+00 0.000000e+00 0
0.000000e+00 6.539387e+01 0
0.000000e+00 1.040815e+02 0
0.000000e+00 3.868760e+01 0
0.000000e+00 0.000000e+00 0
0.000000e+00 0.000000e+00 0
0.000000e+00 0.000000e+00 0
0.000000e+00 -5.000000e+01 0
0.000000e+00 -9.999923e+01 0
-3.359192e-02 -9.994990e+01 0
6.612164e-02 -9.992183e+01 0
2.013382e-01 -9.997116e+01 0
6.737344e-01 -5.000000e+01 0
0.000000e+00 0.000000e+00 0
0.000000e+00 0.000000e+00 0
0.000000e+00 0.000000e+00 0
0.000000e+00 1.307844e+01 0
0.000000e+00 4.608746e+01 0
-3.643216e+01 6.112762e+01 0
0.000000e+00 -1.193331e-13 0
0.000000e+00 0.000000e+00 0
0.000000e+00 3.868760e+01 0
0.000000e+00 7.737521e+01 0
0.000000e+00 3.868760e+01 0
0.000000e+00 0.000000e+00 0
0.000000e+00 0.000000e+00 0
0.000000e+00 0.000000e+00 0
0.000000e+00 -5.000000e+01 0
0.000000e+00 -1.000075e+02 0
-1.895268e-02 -9.999394e+01 0
3.378294e-02 -9.998888e+01 0
7.636909e-02 -1.000024e+02 0
7.636909e-02 -5.000000e+01 0
0.000000e+00 0.000000e+00 0
0.000000e+00 0.000000e+00 0
0.000000e+00 0.000000e+00 0
0.000000e+00 0.000000e+00 0
0.000000e+00 3.300902e+01 0
-2.439220e+01 3.655063e+01 0
0.000000e+00 -1.491664e-14 0
0.000000e+00 0.000000e+00 0
0.000000e+00 0.000000e+00 0
0.000000e+00 3.868760e+01 0
0.000000e+00 3.868760e+01 0
0.000000e+00 0.000000e+00 0
0.000000e+00 0.000000e+00 0
0.000000e+00 0.000000e+00 0
0.000000e+00 -5.000000e+01 0
0.000000e+00 -1.000110e+02 0
-1.251445e-02 -1.000148e+02 0
1.171095e-02 -1.000179e+02 0
2.634274e-02 -1.000141e+02 0
2.634274e-02 -5.000000e+01 0
0.000000e+00 0.000000e+00 0
0.000000e+00 0.000000e+00 0
0.000000e+00 0.000000e+00 0
0.000000e+00 0.000000e+00 0
0.000000e+00 0.000000e+00 0
0.000000e+00 0.000000e+00 0
0.000000e+00 0.000000e+00 0
0.000000e+00 0.000000e+00 0
0.000000e+00 0.000000e+00 0
0.000000e+00 0.000000e+00 0
0.000000e+00 0.000000e+00 0
0.000000e+00 0.000000e+00 0
0.000000e+00 0.000000e+00 0
0.000000e+00 0.000000e+00 0
0.000000e+00 -5.000000e+01 0
0.000000e+00 -1.000114e+02 0
-9.161131e-03 -1.000222e+02 0
-6.660634e-04 -1.000280e+02 0
1.554526e-03 -1.000172e+02 0
1.554526e-03 -5.000000e+01 0
0.000000e+00 0.000000e+00 0
0.000000e+00 0.000000e+00 0
0.000000e+00 0.000000e+00 0
0.000000e+00 0.000000e+00 0
0.000000e+00 0.000000e+00 0
0.000000e+00 0.000000e+00 0
0.000000e+00 0.000000e+00 0
0.000000e+00 0.000000e+00 0
0.000000e+00 0.000000e+00 0
0.000000e+00 0.000000e+00 0
0.000000e+00 0.000000e+00 0
0.000000e+00 0.000000e+00 0
0.000000e+00 0.000000e+00 0
0.000000e+00 0.000000e+00 0
0.000000e+00 -5.000000e+01 0
0.000000e+00 -1.000100e+02 0
-6.874733e-03 -1.000224e+02 0
-6.727983e-03 -1.000287e+02 0
-1.039291e-02 -1.000163e+02 0
-1.039291e-02 -5.000000e+01 0
0.000000e+00 0.000000e+00 0
0.000000e+00 0.000000e+00 0
0.000000e+00 0.000000e+00 0
0.000000e+00 0.000000e+00 0
0.000000e+00 0.000000e+00 0
0.000000e+00 0.000000e+00 0
0.000000e+00 0.000000e+00 0
0.000000e+00 0.000000e+00 0
0.000000e+00 0.000000e+00 0
0.000000e+00 0.000000e+00 0
0.000000e+00 0.000000e+00 0
0.000000e+00 0.000000e+00 0
0.000000e+00 0.000000e+00 0
0.000000e+00 0.000000e+00 0
0.000000e+00 -5.000000e+01 0
0.000000e+00 -1.000078e+02 0
-4.864425e-03 -1.000188e+02 0
-8.986107e-03 -1.000245e+02 0
-1.547997e-02 -1.000135e+02 0
-1.547997e-02 -5.000000e+01 0
0.000000e+00 0.000000e+00 0
0.000000e+00 0.000000e+00 0
0.000000e+00 0.000000e+00 0
0.000000e+00 0.000000e+00 0
0.000000e+00 0.000000e+00 0
0.000000e+00 0.000000e+00 0
0.000000e+00 0.000000e+00 0
0.000000e+00 0.000000e+00 0
0.000000e+00 0.000000e+00 0
0.000000e+00 0.000000e+00 0
0.000000e+00 0.000000e+00 0
0.000000e+00 0.000000e+00 0
0.000000e+00 0.000000e+00 0
0.000000e+00 0.000000e+00 0
0.000000e+00 -5.000000e+01 0
0.000000e+00 -1.000055e+02 0
-2.830888e-03 -1.000137e+02 0
-8.883196e-03 -1.000180e+02 0
-1.654405e-02 -1.000098e+02 0
-1.654405e-02 -5.000000e+01 0
0.000000e+00 0.000000e+00 0
0.000000e+00 0.000000e+00 0
0.000000e+00 0.000000e+00 0
0.000000e+00 0.000000e+00 0
0.000000e+00 0.000000e+00 0
0.000000e+00 0.000000e+00 0
0.000000e+00 0.000000e+00 0
0.000000e+00 0.000000e+00 0
0.000000e+00 0.000000e+00 0
0.000000e+00 0.000000e+00 0
0.000000e+00 0.000000e+00 0
0.000000e+00 0.000000e+00 0
0.000000e+00 0.000000e+00 0
0.000000e+00 0.000000e+00 0
0.000000e+00 -5.000000e+01 0
0.000000e+00 -1.000034e+02 0
-7.684152e-04 -1.000083e+02 0
-7.120088e-03 -1.000107e+02 0
-1.468012e-02 -1.000058e+02 0
-1.468012e-02 -5.000000e+01 0
0.000000e+00 0.000000e+00 0
0.000000e+00 0.000000e+00 0
0.000000e+00 0.000000e+00 0
0.000000e+00 0.000000e+00 0
0.000000e+00 0.000000e+00 0
0.000000e+00 0.000000e+00 0
0.000000e+00 0.000000e+00 0
0.000000e+00 0.000000e+00 0
0.000000e+00 0.000000e+00 0
0.000000e+00 0.000000e+00 0
0.000000e+00 0.000000e+00 0
0.000000e+00 0.000000e+00 0
0.000000e+00 0.000000e+00 0
0.000000e+00 0.000000e+00 0
0.000000e+00 -5.000000e+01 0
0.000000e+00 -1.000017e+02 0
8.426566e-04 -1.000035e+02 0
-4.023939e-03 -1.000040e+02 0
-9.745949e-03 -1.000021e+02 0
-9.745949e-03 -5.000000e+01 0
0.000000e+00 0.000000e+00 0
0.000000e+00 0.000000e+00 0
0.000000e+00 0.000000e+00 0
0.000000e+00 0.000000e+00 0
0.000000e+00 0.000000e+00 0
0.000000e+00 0.000000e+00 0
0.000000e+00 0.000000e+00 0
0.000000e+00 0.000000e+00 0
0.000000e+00 0.000000e+00 0
0.000000e+00 0.000000e+00 0
0.000000e+00 0.000000e+00 0
0.000000e+00 0.000000e+00 0
0.000000e+00 0.000000e+00 0
0.000000e+00 0.000000e+00 0
0.000000e+00 -5.000000e+01 0
0.000000e+00 -1.000000e+02 0
5.917856e-18 -1.000000e+02 0
-9.104394e-18 -1.000000e+02 0
-2.660926e-17 -1.000000e+02 0
-2.670622e-17 -5.000000e+01 0
0.000000e+00 0.000000e+00 0
0.000000e+00 0.000000e+00 0
0.000000e+00 0.000000e+00 0
0.000000e+00 0.000000e+00 0
0.000000e+00 0.000000e+00 0
0.000000e+00 0.000000e+00 0
0.000000e+00 0.000000e+00 0
</DataArray>
<DataArray Name="Type and Neighbourhood" type="Float64" format="ascii" NumberOfComponents="3">
0.000000e+00 0.000000e+00 0
0.000000e+00 0.000000e+00 0
0.000000e+00 0.000000e+00 0
0.000000e+00 0.000000e+00 0
0.000000e+00 0.000000e+00 0
0.000000e+00 0.000000e+00 0
0.000000e+00 0.000000e+00 0
0.000000e+00 0.000000e+00 0