<?xml version="1.0"?>
<VTKFile type="StructuredGrid">
<StructuredGrid WholeExtent="0 19 0 33 0 0 ">
<Piece Extent="0 19 0 33 0 0 ">
<Points>
<DataArray type="Float64" format="ascii" NumberOfComponents="3">
0.000000e+00 0.000000e+00 0.000000e+00
1.052632e-01 0.000000e+00 0.000000e+00
2.105263e-01 0.000000e+00 0.000000e+00
3.157895e-01 0.000000e+00 0.000000e+00
4.210526e-01 0.000000e+00 0.000000e+00
5.263158e-01 0.000000e+00 0.000000e+00
6.315789e-01 0.000000e+00 0.000000e+00
7.368421e-01 0.000000e+00 0.000000e+00
8.421053e-01 0.000000e+00 0.000000e+00
9.473684e-01 0.000000e+00 0.000000e+00
1.052632e+00 0.000000e+00 0.000000e+00
1.157895e+00 0.000000e+00 0.000000e+00
1.263158e+00 0.000000e+00 0.000000e+00
1.368421e+00 0.000000e+00 0.000000e+00
1.473684e+00 0.000000e+00 0.000000e+00
1.578947e+00 0.000000e+00 0.000000e+00
1.684211e+00 0.000000e+00 0.000000e+00
1.789474e+00 0.000000e+00 0.000000e+00
1.894737e+00 0.000000e+00 0.000000e+00
2.000000e+00 0.000000e+00 0.000000e+00
0.000000e+00 1.060606e-01 0.000000e+00
1.052632e-01 1.060606e-01 0.000000e+00
2.105263e-01 1.060606e-01 0.000000e+00
3.157895e-01 1.060606e-01 0.000000e+00
4.210526e-01 1.060606e-01 0.000000e+00
5.263158e-01 1.060606e-01 0.000000e+00
6.315789e-01 1.060606e-01 0.000000e+00
7.368421e-01 1.060606e-01 0.000000e+00
8.421053e-01 1.060606e-01 0.000000e+00
9.473684e-01 1.060606e-01 0.000000e+00
1.052632e+00 1.060606e-01 0.000000e+00
1.157895e+00 1.060606e-01 0.000000e+00
1.263158e+00 1.060606e-01 0.000000e+00
1.368421e+00 1.060606e-01 0.000000e+00
1.473684e+00 1.060606e-01 0.000000e+00
1.578947e+00 1.060606e-01 0.000000e+00
1.684211e+00 1.060606e-01 0.000000e+00
1.789474e+00 1.060606e-01 0.000000e+00
1.894737e+00 1.060606e-01 0.000000e+00
2.000000e+00 1.060606e-01 0.000000e+00
0.000000e+00 2.121212e-01 0.000000e+00
1.052632e-01 2.121212e-01 0.000000e+00
2.105263e-01 2.121212e-01 0.000000e+00
3.157895e-01 2.121212e-01 0.000000e+00
4.210526e-01 2.121212e-01 0.000000e+00
5.263158e-01 2.121212e-01 0.000000e+00
6.315789e-01 2.121212e-01 0.000000e+00
7.368421e-01 2.121212e-01 0.000000e+00
8.421053e-01 2.121212e-01 0.000000e+00
9.473684e-01 2.121212e-01 0.000000e+00
1.052632e+00 2.121212e-01 0.000000e+00
1.157895e+00 2.121212e-01 0.000000e+00
1.263158e+00 2.121212e-01 0.000000e+00
1.368421e+00 2.121212e-01 0.000000e+00
1.473684e+00 2.121212e-01 0.000000e+00
1.578947e+00 2.121212e-01 0.000000e+00
1.684211e+00 2.121212e-01 0.000000e+00
1.789474e+00 2.121212e-01 0.000000e+00
1.894737e+00 2.121212e-01 0.000000e+00
2.000000e+00 2.121212e-01 0.000000e+00
0.000000e+00 3.181818e-01 0.000000e+00
1.052632e-01 3.181818e-01 0.000000e+00
2.105263e-01 3.181818e-01 0.000000e+00
3.157895e-01 3.181818e-01 0.000000e+00
4.210526e-01 3.181818e-01 0.000000e+00
5.263158e-01 3.181818e-01 0.000000e+00
6.315789e-01 3.181818e-01 0.000000e+00
7.368421e-01 3.181818e-01 0.000000e+00
8.421053e-01 3.181818e-01 0.000000e+00
9.473684e-01 3.181818e-01 0.000000e+00
1.052632e+00 3.181818e-01 0.000000e+00
1.157895e+00 3.181818e-01 0.000000e+00
1.263158e+00 3.181818e-01 0.000000e+00
1.368421e+00 3.181818e-01 0.000000e+00
1.473684e+00 3.181818e-01 0.000000e+00
1.578947e+00 3.181818e-01 0.000000e+00
1.684211e+00 3.181818e-01 0.000000e+00
1.789474e+00 3.181818e-01 0.000000e+00
1.894737e+00 3.181818e-01 0.000000e+00
2.000000e+00 3.181818e-01 0.000000e+00
0.000000e+00 4.242424e-01 0.000000e+00
1.052632e-01 4.242424e-01 0.000000e+00
2.105263e-01 4.242424e-01 0.000000e+00
3.157895e-01 4.242424e-01 0.000000e+00
4.210526e-01 4.242424e-01 0.000000e+00
5.263158e-01 4.242424e-01 0.000000e+00
6.315789e-01 4.242424e-01 0.000000e+00
7.368421e-01 4.242424e-01 0.000000e+00
8.421053e-01 4.242424e-01 0.000000e+00
9.473684e-01 4.242424e-01 0.000000e+00
1.052632e+00 4.242424e-01 0.000000e+00
1.157895e+00 4.242424e-01 0.000000e+00
1.263158e+00 4.242424e-01 0.000000e+00
1.368421e+00 4.242424e-01 0.000000e+00
1.473684e+00 4.242424e-01 0.000000e+00
1.578947e+00 4.242424e-01 0.000000e+00
1.684211e+00 4.242424e-01 0.000000e+00
1.789474e+00 4.242424e-01 0.000000e+00
1.894737e+00 4.242424e-01 0.000000e+00
2.000000e+00 4.242424e-01 0.000000e+00
0.000000e+00 5.303030e-01 0.000000e+00
1.052632e-01 5.303030e-01 0.000000e+00
2.105263e-01 5.303030e-01 0.000000e+00
3.157895e-01 5.303030e-01 0.000000e+00
4.210526e-01 5.303030e-01 0.000000e+00
5.263158e-01 5.303030e-01 0.000000e+00
6.315789e-01 5.303030e-01 0.000000e+00
7.368421e-01 5.303030e-01 0.000000e+00
8.421053e-01 5.303030e-01 0.000000e+00
9.473684e-01 5.303030e-01 0.000000e+00
1.052632e+00 5.303030e-01 0.000000e+00
1.157895e+00 5.303030e-01 0.000000e+00
1.263158e+00 5.303030e-01 0.000000e+00
1.368421e+00 5.303030e-01 0.000000e+00
1.473684e+00 5.303030e-01 0.000000e+00
1.578947e+00 5.303030e-01 0.000000e+00
1.684211e+00 5.303030e-01 0.000000e+00
1.789474e+00 5.303030e-01 0.000000e+00
1.894737e+00 5.303030e-01 0.000000e+00
2.000000e+00 5.303030e-01 0.000000e+00
0.000000e+00 6.363636e-01 0.000000e+00
1.052632e-01 6.363636e-01 0.000000e+00
2.105263e-01 6.363636e-01 0.000000e+00
3.157895e-01 6.363636e-01 0.000000e+00
4.210526e-01 6.363636e-01 0.000000e+00
5.263158e-01 6.363636e-01 0.000000e+00
6.315789e-01 6.363636e-01 0.000000e+00
7.368421e-01 6.363636e-01 0.000000e+00
8.421053e-01 6.363636e-01 0.000000e+00
9.473684e-01 6.363636e-01 0.000000e+00
1.052632e+00 6.363636e-01 0.000000e+00
1.157895e+00 6.363636e-01 0.000000e+00
1.263158e+00 6.363636e-01 0.000000e+00
1.368421e+00 6.363636e-01 0.000000e+00
1.473684e+00 6.363636e-01 0.000000e+00
1.578947e+00 6.363636e-01 0.000000e+00
1.684211e+00 6.363636e-01 0.000000e+00
1.789474e+00 6.363636e-01 0.000000e+00
1.894737e+00 6.363636e-01 0.000000e+00
2.000000e+00 6.363636e-01 0.000000e+00
0.000000e+00 7.424242e-01 0.000000e+00
1.052632e-01 7.424242e-01 0.000000e+00
2.105263e-01 7.424242e-01 0.000000e+00
3.157895e-01 7.424242e-01 0.000000e+00
4.210526e-01 7.424242e-01 0.000000e+00
5.263158e-01 7.424242e-01 0.000000e+00
6.315789e-01 7.424242e-01 0.000000e+00
7.368421e-01 7.424242e-01 0.000000e+00
8.421053e-01 7.424242e-01 0.000000e+00
9.473684e-01 7.424242e-01 0.000000e+00
1.052632e+00 7.424242e-01 0.000000e+00
1.157895e+00 7.424242e-01 0.000000e+00
1.263158e+00 7.424242e-01 0.000000e+00
1.368421e+00 7.424242e-01 0.000000e+00
1.473684e+00 7.424242e-01 0.000000e+00
1.578947e+00 7.424242e-01 0.000000e+00
1.684211e+00 7.424242e-01 0.000000e+00
1.789474e+00 7.424242e-01 0.000000e+00
1.894737e+00 7.424242e-01 0.000000e+00
2.000000e+00 7.424242e-01 0.000000e+00
0.000000e+00 8.484848e-01 0.000000e+00
1.052632e-01 8.484848e-01 0.000000e+00
2.105263e-01 8.484848e-01 0.000000e+00
3.157895e-01 8.484848e-01 0.000000e+00
4.210526e-01 8.484848e-01 0.000000e+00
5.263158e-01 8.484848e-01 0.000000e+00
6.315789e-01 8.484848e-01 0.000000e+00
7.368421e-01 8.484848e-01 0.000000e+00
8.421053e-01 8.484848e-01 0.000000e+00
9.473684e-01 8.484848e-01 0.000000e+00
1.052632e+00 8.484848e-01 0.000000e+00
1.157895e+00 8.484848e-01 0.000000e+00
1.263158e+00 8.484848e-01 0.000000e+00
1.368421e+00 8.484848e-01 0.000000e+00
1.473684e+00 8.484848e-01 0.000000e+00
1.578947e+00 8.484848e-01 0.000000e+00
1.684211e+00 8.484848e-01 0.000000e+00
1.789474e+00 8.484848e-01 0.000000e+00
1.894737e+00 8.484848e-01 0.000000e+00
2.000000e+00 8.484848e-01 0.000000e+00
0.000000e+00 9.545455e-01 0.000000e+00
1.052632e-01 9.545455e-01 0.000000e+00
2.105263e-01 9.545455e-01 0.000000e+00
3.157895e-01 9.545455e-01 0.000000e+00
4.210526e-01 9.545455e-01 0.000000e+00
5.263158e-01 9.545455e-01 0.000000e+00
6.315789e-01 9.545455e-01 0.000000e+00
7.368421e-01 9.545455e-01 0.000000e+00
8.421053e-01 9.545455e-01 0.000000e+00
9.473684e-01 9.545455e-01 0.000000e+00
1.052632e+00 9.545455e-01 0.000000e+00
1.157895e+00 9.545455e-01 0.000000e+00
1.263158e+00 9.545455e-01 0.000000e+00
1.368421e+00 9.545455e-01 0.000000e+00
1.473684e+00 9.545455e-01 0.000000e+00
1.578947e+00 9.545455e-01 0.000000e+00
1.684211e+00 9.545455e-01 0.000000e+00
1.789474e+00 9.545455e-01 0.000000e+00
1.894737e+00 9.545455e-01 0.000000e+00
2.000000e+00 9.545455e-01 0.000000e+00
0.000000e+00 1.060606e+00 0.000000e+00
1.052632e-01 1.060606e+00 0.000000e+00
2.105263e-01 1.060606e+00 0.000000e+00
3.157895e-01 1.060606e+00 0.000000e+00
4.210526e-01 1.060606e+00 0.000000e+00
5.263158e-01 1.060606e+00 0.000000e+00
6.315789e-01 1.060606e+00 0.000000e+00
7.368421e-01 1.060606e+00 0.000000e+00
8.421053e-01 1.060606e+00 0.000000e+00
9.473684e-01 1.060606e+00 0.000000e+00
1.052632e+00 1.060606e+00 0.000000e+00
1.157895e+00 1.060606e+00 0.000000e+00
1.263158e+00 1.060606e+00 0.000000e+00
1.368421e+00 1.060606e+00 0.000000e+00
1.473684e+00 1.060606e+00 0.000000e+00
1.578947e+00 1.060606e+00 0.000000e+00
1.684211e+00 1.060606e+00 0.000000e+00
1.789474e+00 1.060606e+00 0.000000e+00
1.894737e+00 1.060606e+00 0.000000e+00
2.000000e+00 1.060606e+00 0.000000e+00
0.000000e+00 1.166667e+00 0.000000e+00
1.052632e-01 1.166667e+00 0.000000e+00
2.105263e-01 1.166667e+00 0.000000e+00
3.157895e-01 1.166667e+00 0.000000e+00
4.210526e-01 1.166667e+00 0.000000e+00
5.263158e-01 1.166667e+00 0.000000e+00
6.315789e-01 1.166667e+00 0.000000e+00
7.368421e-01 1.166667e+00 0.000000e+00
8.421053e-01 1.166667e+00 0.000000e+00
9.473684e-01 1.166667e+00 0.000000e+00
1.052632e+00 1.166667e+00 0.000000e+00
1.157895e+00 1.166667e+00 0.000000e+00
1.263158e+00 1.166667e+00 0.000000e+00
1.368421e+00 1.166667e+00 0.000000e+00
1.473684e+00 1.166667e+00 0.000000e+00
1.578947e+00 1.166667e+00 0.000000e+00
1.684211e+00 1.166667e+00 0.000000e+00
1.789474e+00 1.166667e+00 0.000000e+00
1.894737e+00 1.166667e+00 0.000000e+00
2.000000e+00 1.166667e+00 0.000000e+00
0.000000e+00 1.272727e+00 0.000000e+00
1.052632e-01 1.272727e+00 0.000000e+00
2.105263e-01 1.272727e+00 0.000000e+00
3.157895e-01 1.272727e+00 0.000000e+00
4.210526e-01 1.272727e+00 0.000000e+00
5.263158e-01 1.272727e+00 0.000000e+00
6.315789e-01 1.272727e+00 0.000000e+00
7.368421e-01 1.272727e+00 0.000000e+00
8.421053e-01 1.272727e+00 0.000000e+00
9.473684e-01 1.272727e+00 0.000000e+00
1.052632e+00 1.272727e+00 0.000000e+00
[...]
<PointData>
<DataArray Name="Velocity" type="Float64" format="ascii" NumberOfComponents="3">
0.000000e+00 0.000000e+00 0
0.000000e+00 0.000000e+00 0
0.000000e+00 0.000000e+00 0
0.000000e+00 0.000000e+00 0
0.000000e+00 0.000000e+00 0
0.000000e+00 0.000000e+00 0
0.000000e+00 0.000000e+00 0
0.000000e+00 0.000000e+00 0
0.000000e+00 0.000000e+00 0
0.000000e+00 0.000000e+00 0
0.000000e+00 0.000000e+00 0
-1.119037e-15 0.000000e+00 0
0.000000e+00 0.000000e+00 0
0.000000e+00 0.000000e+00 0
0.000000e+00 0.000000e+00 0
-9.959550e-16 0.000000e+00 0
0.000000e+00 0.000000e+00 0
0.000000e+00 0.000000e+00 0
1.547190e+00 0.000000e+00 0
0.000000e+00 0.000000e+00 0
0.000000e+00 0.000000e+00 0
-2.346071e+01 2.281926e+01 0
-4.177226e+01 1.670644e+01 0
-5.551723e+01 1.116945e+01 0
-6.430675e+01 5.047584e+00 0
-6.676501e+01 -2.345403e+00 0
-6.107070e+01 -1.105913e+01 0
-4.695474e+01 -1.974811e+01 0
-2.536061e+01 -2.310907e+01 0
-5.598935e+00 -1.800640e+01 0
1.105032e+01 -1.455996e+01 0
2.757228e+01 -1.710428e+01 0
4.628423e+01 -1.661099e+01 0
6.043178e+01 -1.099727e+01 0
6.776201e+01 -3.652406e+00 0
6.762923e+01 3.813482e+00 0
5.942167e+01 9.968610e+00 0
4.585771e+01 1.667323e+01 0
2.692625e+01 1.044366e+01 0
0.000000e+00 0.000000e+00 0
0.000000e+00 0.000000e+00 0
-1.804942e+01 4.208871e+01 0
-3.342516e+01 3.229938e+01 0
-4.591521e+01 2.270521e+01 0
-5.555611e+01 1.133298e+01 0
-6.007106e+01 -3.260562e+00 0
-5.530734e+01 -1.996035e+01 0
-4.438328e+01 -3.598062e+01 0
-2.582566e+01 -4.166911e+01 0
-8.932782e+00 -3.668677e+01 0
9.590686e+00 -3.342251e+01 0
2.710466e+01 -3.550084e+01 0
4.578687e+01 -3.310844e+01 0
5.908936e+01 -2.164049e+01 0
6.674515e+01 -7.251981e+00 0
6.843063e+01 8.403522e+00 0
5.816673e+01 2.193646e+01 0
4.252541e+01 3.168343e+01 0
2.470875e+01 4.241728e+01 0
0.000000e+00 -9.944426e-14 0
0.000000e+00 0.000000e+00 0
-1.353496e+01 5.649764e+01 0
-2.318881e+01 4.478332e+01 0
-3.034805e+01 3.346805e+01 0
-3.830125e+01 1.931068e+01 0
-4.388686e+01 -2.596050e+00 0
-4.426546e+01 -2.686576e+01 0
-3.808996e+01 -4.945314e+01 0
-2.208123e+01 -5.882813e+01 0
-6.915772e+00 -5.369105e+01 0
9.009333e+00 -5.087041e+01 0
2.537898e+01 -5.357467e+01 0
4.273396e+01 -4.883800e+01 0
5.404981e+01 -3.211434e+01 0
6.548969e+01 -1.306444e+01 0
4.578144e+01 1.245690e+01 0
3.998987e+01 3.607008e+01 0
3.133163e+01 4.932650e+01 0
1.811894e+01 6.127728e+01 0
0.000000e+00 -1.441942e-13 0
0.000000e+00 0.000000e+00 0
-6.860925e+00 6.545320e+01 0
-1.103891e+01 4.923985e+01 0
-9.951257e+00 3.793213e+01 0
-4.190433e+00 2.497435e+01 0
-8.513544e+00 2.059422e+00 0
-2.636567e+01 -2.649056e+01 0
-2.909959e+01 -5.833291e+01 0
-1.671680e+01 -7.307946e+01 0
-4.604133e+00 -6.801287e+01 0
8.397872e+00 -6.596192e+01 0
2.210695e+01 -6.948095e+01 0
3.614178e+01 -6.199647e+01 0
4.249131e+01 -4.456861e+01 0
4.990680e+01 1.079027e+00 0
1.109841e+01 3.276380e+01 0
1.874043e+01 3.516302e+01 0
1.611953e+01 5.372005e+01 0
1.012726e+01 7.203411e+01 0
0.000000e+00 -1.789997e-13 0
0.000000e+00 0.000000e+00 0
2.042078e+00 6.762018e+01 0
-1.907079e+00 4.789707e+01 0
3.383543e-02 2.656769e+01 0
2.904226e+01 2.045888e+00 0
7.476073e+00 -1.209201e+01 0
-7.742236e+00 -2.257790e+01 0
-1.896583e+01 -5.960624e+01 0
-1.085157e+01 -8.350916e+01 0
-2.402575e+00 -7.899599e+01 0
7.309059e+00 -7.778385e+01 0
1.758968e+01 -8.152876e+01 0
2.717676e+01 -6.937679e+01 0
2.655492e+01 -4.598364e+01 0
1.735578e+01 -1.891231e+01 0
2.877423e-14 1.362981e+01 0
1.364080e+01 3.895407e+01 0
9.453558e+00 5.869904e+01 0
4.669296e+00 7.751892e+01 0
0.000000e+00 -1.839719e-13 0
0.000000e+00 0.000000e+00 0
3.200587e+00 6.737473e+01 0
6.818058e+00 5.126330e+01 0
1.761477e+00 4.892367e+00 0
2.205886e+01 -1.421460e+01 0
0.000000e+00 0.000000e+00 0
0.000000e+00 -1.286316e+01 0
-1.088529e+01 -5.764219e+01 0
-6.822372e+00 -8.848376e+01 0
-1.062402e+00 -8.631108e+01 0
5.742119e+00 -8.610564e+01 0
1.265289e+01 -8.949917e+01 0
1.790119e+01 -7.102963e+01 0
1.587497e+01 -2.502976e+01 0
0.000000e+00 0.000000e+00 0
-3.229871e+01 1.362981e+01 0
5.974476e+00 3.473123e+01 0
1.277759e+01 5.725142e+01 0
1.431064e-01 8.155929e+01 0
0.000000e+00 -1.889441e-13 0
0.000000e+00 0.000000e+00 0
-1.776225e+01 6.075047e+01 0
7.683861e+00 4.934708e+01 0
-9.766310e+00 9.355461e+00 0
2.144909e+00 -1.421460e+01 0
0.000000e+00 0.000000e+00 0
0.000000e+00 -1.050680e-03 0
-8.644919e+00 -4.650258e+01 0
-5.279660e+00 -9.274057e+01 0
-6.436996e-01 -9.165567e+01 0
4.091061e+00 -9.160304e+01 0
8.418876e+00 -9.377995e+01 0
1.077720e+01 -7.262328e+01 0
1.077720e+01 -2.502976e+01 0
0.000000e+00 -6.509284e+01 0
-3.229871e+01 -6.509284e+01 0
0.000000e+00 2.094679e+01 0
9.316251e+00 6.100955e+01 0
1.346622e+00 8.435109e+01 0
0.000000e+00 -1.939163e-13 0
0.000000e+00 0.000000e+00 0
-1.800534e+01 5.963265e+01 0
1.109415e+00 4.320679e+01 0
-1.389446e+01 3.668934e+01 0
0.000000e+00 0.000000e+00 0
0.000000e+00 0.000000e+00 0
0.000000e+00 -1.050680e-03 0
-6.237614e+00 -4.886403e+01 0
-3.196946e+00 -9.723880e+01 0
-3.133360e-01 -9.575279e+01 0
2.848660e+00 -9.523687e+01 0
5.629969e+00 -9.623596e+01 0
7.159648e+00 -7.340582e+01 0
4.101380e+00 -2.502976e+01 0
0.000000e+00 0.000000e+00 0
-3.229871e+01 0.000000e+00 0
0.000000e+00 2.094679e+01 0
5.486457e-01 5.912589e+01 0
4.125574e+00 8.494520e+01 0
0.000000e+00 -1.988885e-13 0
0.000000e+00 -4.849168e+00 0
0.000000e+00 5.963265e+01 0
0.000000e+00 4.520506e+01 0
-1.983245e+00 3.868760e+01 0
0.000000e+00 0.000000e+00 0
0.000000e+00 0.000000e+00 0
0.000000e+00 -4.846550e+01 0
-1.565518e+00 -9.810539e+01 0
-7.944600e-01 -9.900034e+01 0
3.258330e-02 -9.796303e+01 0
1.984666e+00 -9.759137e+01 0
3.730076e+00 -9.812359e+01 0
4.884448e+00 -4.913479e+01 0
0.000000e+00 0.000000e+00 0
0.000000e+00 -6.038941e-03 0
-3.229871e+01 -6.038941e-03 0
0.000000e+00 0.000000e+00 0
0.000000e+00 3.650362e+01 0
7.344513e+00 8.447216e+01 0
0.000000e+00 -2.088330e-13 0
0.000000e+00 -5.076020e-15 0
0.000000e+00 3.868760e+01 0
0.000000e+00 7.737521e+01 0
0.000000e+00 3.868760e+01 0
0.000000e+00 0.000000e+00 0
0.000000e+00 0.000000e+00 0
0.000000e+00 -5.073280e-14 0
0.000000e+00 -5.000000e+01 0
0.000000e+00 -9.974434e+01 0
7.881722e-02 -9.908818e+01 0
1.325312e+00 -9.896237e+01 0
2.381337e+00 -9.915771e+01 0
2.746809e+00 -4.953918e+01 0
0.000000e+00 0.000000e+00 0
0.000000e+00 -6.321452e-18 0
0.000000e+00 -6.321452e-18 0
0.000000e+00 0.000000e+00 0
7.482811e+01 3.650362e+01 0
1.193356e+01 8.872913e+01 0
0.000000e+00 -2.187774e-13 0
0.000000e+00 0.000000e+00 0
0.000000e+00 0.000000e+00 0
0.000000e+00 3.868760e+01 0
0.000000e+00 3.868760e+01 0
0.000000e+00 0.000000e+00 0
0.000000e+00 0.000000e+00 0
0.000000e+00 0.000000e+00 0
0.000000e+00 -5.000000e+01 0
0.000000e+00 -1.000380e+02 0
-6.844127e-02 -9.989648e+01 0
8.575058e-01 -9.991134e+01 0
1.823416e+00 -9.955586e+01 0
2.280772e+00 -4.950303e+01 0
0.000000e+00 -1.885692e-17 0
0.000000e+00 -6.690522e-03 0
0.000000e+00 -1.778013e-02 0
0.000000e+00 -3.890641e+01 0
7.482811e+01 6.670042e+01 0
6.255481e+00 1.645054e+02 0
0.000000e+00 -2.486107e-13 0
0.000000e+00 0.000000e+00 0
0.000000e+00 0.000000e+00 0
0.000000e+00 0.000000e+00 0
0.000000e+00 0.000000e+00 0
0.000000e+00 0.000000e+00 0
0.000000e+00 0.000000e+00 0
0.000000e+00 0.000000e+00 0
0.000000e+00 -5.000000e+01 0
0.000000e+00 -1.002681e+02 0
-3.771899e-01 -1.005449e+02 0
3.483565e-01 -1.008686e+02 0
1.827464e+00 -1.005918e+02 0
2.320693e+00 -5.000000e+01 0
0.000000e+00 -9.007092e-03 0
0.000000e+00 -1.569761e-02 0
0.000000e+00 -6.690522e-03 0
0.000000e+00 0.000000e+00 0
0.000000e+00 0.000000e+00 0
0.000000e+00 5.770633e+01 0
0.000000e+00 -2.386662e-13 0
0.000000e+00 0.000000e+00 0
0.000000e+00 0.000000e+00 0
0.000000e+00 0.000000e+00 0
0.000000e+00 0.000000e+00 0
0.000000e+00 0.000000e+00 0
0.000000e+00 0.000000e+00 0
0.000000e+00 0.000000e+00 0
0.000000e+00 -5.000000e+01 0
0.000000e+00 -1.003834e+02 0
-9.752336e-01 -1.009729e+02 0
-9.287727e-01 -1.021327e+02 0
-1.293366e-01 -1.015431e+02 0
9.628317e-01 -5.000000e+01 0
2.281182e-03 -3.048719e-18 0
0.000000e+00 1.843787e-14 0
-2.268130e+00 -2.590982e-14 0
-2.268130e+00 -4.434768e-14 0
0.000000e+00 0.000000e+00 0
0.000000e+00 6.764376e+01 0
0.000000e+00 -2.883884e-13 0
0.000000e+00 0.000000e+00 0
0.000000e+00 0.000000e+00 0
0.000000e+00 0.000000e+00 0
0.000000e+00 0.000000e+00 0
0.000000e+00 0.000000e+00 0
0.000000e+00 0.000000e+00 0
0.000000e+00 0.000000e+00 0
0.000000e+00 -5.000000e+01 0
0.000000e+00 -1.002296e+02 0
-1.631554e+00 -1.005532e+02 0
-3.010491e+00 -1.017209e+02 0
-7.189774e+00 -1.034073e+02 0
-1.950226e+01 -5.201154e+01 0
-6.799205e+01 -1.456234e-03 0
-6.799433e+01 8.806931e+00 0
-4.448690e+01 -1.237594e+01 0
-4.195169e+01 -2.118287e+01 0
-3.968356e+01 0.000000e+00 0
0.000000e+00 6.439599e+01 0
0.000000e+00 -2.684995e-13 0
0.000000e+00 0.000000e+00 0
0.000000e+00 0.000000e+00 0
0.000000e+00 0.000000e+00 0
0.000000e+00 0.000000e+00 0
0.000000e+00 0.000000e+00 0
0.000000e+00 0.000000e+00 0
0.000000e+00 0.000000e+00 0
0.000000e+00 -5.000000e+01 0
0.000000e+00 -9.984311e+01 0
-1.395530e+00 -9.904328e+01 0
-2.248146e+00 -9.653236e+01 0
-4.424802e+00 -8.583607e+01 0
-6.419769e+00 1.035180e+01 0
-6.799433e+01 2.766693e+01 0
-6.799433e+01 -5.110045e+01 0
-1.049577e+02 -4.068730e+01 0
-1.024225e+02 -1.292770e+00 0
-1.024225e+02 9.482827e+00 0
-5.029328e+01 6.088508e+01 0
0.000000e+00 -2.585551e-13 0
0.000000e+00 0.000000e+00 0
0.000000e+00 0.000000e+00 0
0.000000e+00 0.000000e+00 0
0.000000e+00 0.000000e+00 0
0.000000e+00 0.000000e+00 0
0.000000e+00 0.000000e+00 0
0.000000e+00 0.000000e+00 0
0.000000e+00 -5.000000e+01 0
0.000000e+00 -9.981332e+01 0
-6.289927e-01 -9.927786e+01 0
-1.008659e-01 -9.866864e+01 0
2.285430e+00 -9.920411e+01 0
1.334872e+01 -5.000000e+01 0
0.000000e+00 0.000000e+00 0
0.000000e+00 -2.991170e+01 0
-6.273897e+01 -4.068730e+01 0
-6.273897e+01 -1.292770e+00 0
-6.273897e+01 2.310548e+01 0
-9.714759e+01 2.383345e+01 0
0.000000e+00 -4.350686e-14 0
0.000000e+00 0.000000e+00 0
0.000000e+00 0.000000e+00 0
0.000000e+00 0.000000e+00 0
0.000000e+00 0.000000e+00 0
0.000000e+00 0.000000e+00 0
0.000000e+00 0.000000e+00 0
0.000000e+00 0.000000e+00 0
0.000000e+00 -5.000000e+01 0
0.000000e+00 -9.988621e+01 0
-2.611202e-01 -9.961850e+01 0
1.617088e-01 -9.946887e+01 0
8.784907e-01 -9.938754e+01 0
3.377543e-01 -4.965097e+01 0
0.000000e+00 0.000000e+00 0
0.000000e+00 0.000000e+00 0
0.000000e+00 0.000000e+00 0
0.000000e+00 0.000000e+00 0
0.000000e+00 -1.042789e-03 0
-4.685431e+01 -1.042789e-03 0
0.000000e+00 0.000000e+00 0
0.000000e+00 0.000000e+00 0
0.000000e+00 0.000000e+00 0
0.000000e+00 0.000000e+00 0
0.000000e+00 0.000000e+00 0
0.000000e+00 0.000000e+00 0
0.000000e+00 0.000000e+00 0
0.000000e+00 0.000000e+00 0
0.000000e+00 -5.000000e+01 0
0.000000e+00 -9.995437e+01 0
-1.127308e-01 -9.984494e+01 0
1.258235e-01 -9.981689e+01 0
3.867751e-01 -9.938148e+01 0
7.331760e-01 -4.945517e+01 0
0.000000e+00 0.000000e+00 0
0.000000e+00 0.000000e+00 0
0.000000e+00 0.000000e+00 0
0.000000e+00 0.000000e+00 0
0.000000e+00 0.000000e+00 0
0.000000e+00 -1.042789e-03 0
0.000000e+00 4.400457e-18 0
0.000000e+00 0.000000e+00 0
0.000000e+00 0.000000e+00 0
0.000000e+00 0.000000e+00 0
0.000000e+00 0.000000e+00 0
0.000000e+00 0.000000e+00 0
0.000000e+00 0.000000e+00 0
0.000000e+00 0.000000e+00 0
0.000000e+00 -5.000000e+01 0
0.000000e+00 -9.999748e+01 0
-5.395429e-02 -9.997014e+01 0
6.713381e-02 -9.997216e+01 0
1.692956e-01 -9.999950e+01 0
7.100320e-01 -5.000000e+01 0
0.000000e+00 0.000000e+00 0
0.000000e+00 0.000000e+00 0
0.000000e+00 0.000000e+00 0
0.000000e+00 0.000000e+00 0
0.000000e+00 0.000000e+00 0
0.000000e+00 -1.042789e-03 0
0.000000e+00 4.400457e-18 0
0.000000e+00 0.000000e+00 0
0.000000e+00 0.000000e+00 0
0.000000e+00 0.000000e+00 0
0.000000e+00 0.000000e+00 0
0.000000e+00 0.000000e+00 0
0.000000e+00 0.000000e+00 0
0.000000e+00 0.000000e+00 0
0.000000e+00 -5.000000e+01 0
0.000000e+00 -1.000203e+02 0
-2.965144e-02 -1.000329e+02 0
2.767807e-02 -1.000418e+02 0
6.842020e-02 -1.000293e+02 0
6.842020e-02 -5.000000e+01 0
0.000000e+00 0.000000e+00 0
0.000000e+00 0.000000e+00 0
0.000000e+00 0.000000e+00 0
0.000000e+00 0.000000e+00 0
0.000000e+00 0.000000e+00 0
0.000000e+00 0.000000e+00 0
0.000000e+00 0.000000e+00 0
0.000000e+00 0.000000e+00 0
0.000000e+00 0.000000e+00 0
0.000000e+00 0.000000e+00 0
0.000000e+00 0.000000e+00 0
0.000000e+00 0.000000e+00 0
0.000000e+00 0.000000e+00 0
0.000000e+00 0.000000e+00 0
0.000000e+00 -5.000000e+01 0
0.000000e+00 -1.000305e+02 0
-1.899400e-02 -1.000609e+02 0
5.152770e-03 -1.000710e+02 0
1.911519e-02 -1.000405e+02 0
1.911519e-02 -5.000000e+01 0
0.000000e+00 0.000000e+00 0
0.000000e+00 0.000000e+00 0
0.000000e+00 0.000000e+00 0
0.000000e+00 0.000000e+00 0
0.000000e+00 0.000000e+00 0
0.000000e+00 0.000000e+00 0
0.000000e+00 0.000000e+00 0
0.000000e+00 0.000000e+00 0
0.000000e+00 0.000000e+00 0
0.000000e+00 0.000000e+00 0
0.000000e+00 0.000000e+00 0
0.000000e+00 0.000000e+00 0
0.000000e+00 0.000000e+00 0
0.000000e+00 0.000000e+00 0
0.000000e+00 -5.000000e+01 0
0.000000e+00 -1.000336e+02 0
-1.405047e-02 -1.000705e+02 0
-6.925701e-03 -1.000802e+02 0
-5.427026e-03 -1.000433e+02 0
-5.427026e-03 -5.000000e+01 0
0.000000e+00 0.000000e+00 0
0.000000e+00 0.000000e+00 0
0.000000e+00 0.000000e+00 0
0.000000e+00 0.000000e+00 0
0.000000e+00 0.000000e+00 0
0.000000e+00 0.000000e+00 0
0.000000e+00 0.000000e+00 0
0.000000e+00 0.000000e+00 0
0.000000e+00 0.000000e+00 0
0.000000e+00 0.000000e+00 0
0.000000e+00 0.000000e+00 0
0.000000e+00 0.000000e+00 0
0.000000e+00 0.000000e+00 0
0.000000e+00 0.000000e+00 0
0.000000e+00 -5.000000e+01 0
0.000000e+00 -1.000328e+02 0
-1.163325e-02 -1.000705e+02 0
-1.316322e-02 -1.000797e+02 0
-1.764182e-02 -1.000421e+02 0
-1.764182e-02 -5.000000e+01 0
0.000000e+00 0.000000e+00 0
0.000000e+00 0.000000e+00 0
0.000000e+00 0.000000e+00 0
0.000000e+00 0.000000e+00 0
0.000000e+00 0.000000e+00 0
0.000000e+00 0.000000e+00 0
0.000000e+00 0.000000e+00 0
0.000000e+00 0.000000e+00 0
0.000000e+00 0.000000e+00 0
0.000000e+00 0.000000e+00 0
0.000000e+00 0.000000e+00 0
0.000000e+00 0.000000e+00 0
0.000000e+00 0.000000e+00 0
0.000000e+00 0.000000e+00 0
0.000000e+00 -5.000000e+01 0
0.000000e+00 -1.000301e+02 0
-1.036708e-02 -1.000655e+02 0
-1.624523e-02 -1.000742e+02 0
-2.365477e-02 -1.000388e+02 0
-2.365477e-02 -5.000000e+01 0
0.000000e+00 0.000000e+00 0
0.000000e+00 0.000000e+00 0
0.000000e+00 0.000000e+00 0
0.000000e+00 0.000000e+00 0
0.000000e+00 0.000000e+00 0
0.000000e+00 0.000000e+00 0
0.000000e+00 0.000000e+00 0
0.000000e+00 0.000000e+00 0
0.000000e+00 0.000000e+00 0
0.000000e+00 0.000000e+00 0
0.000000e+00 0.000000e+00 0
0.000000e+00 0.000000e+00 0
0.000000e+00 0.000000e+00 0
0.000000e+00 0.000000e+00 0
0.000000e+00 -5.000000e+01 0
0.000000e+00 -1.000264e+02 0
-9.588624e-03 -1.000581e+02 0
-1.757034e-02 -1.000663e+02 0
-2.639348e-02 -1.000346e+02 0
-2.639348e-02 -5.000000e+01 0
0.000000e+00 0.000000e+00 0
0.000000e+00 0.000000e+00 0
0.000000e+00 0.000000e+00 0
0.000000e+00 0.000000e+00 0
0.000000e+00 0.000000e+00 0
0.000000e+00 0.000000e+00 0
0.000000e+00 0.000000e+00 0
0.000000e+00 0.000000e+00 0
0.000000e+00 0.000000e+00 0
0.000000e+00 0.000000e+00 0
0.000000e+00 0.000000e+00 0
0.000000e+00 0.000000e+00 0
0.000000e+00 0.000000e+00 0
0.000000e+00 0.000000e+00 0
0.000000e+00 -5.000000e+01 0
0.000000e+00 -1.000222e+02 0
-8.923153e-03 -1.000495e+02 0
-1.781712e-02 -1.000572e+02 0
-2.728022e-02 -1.000299e+02 0
-2.728022e-02 -5.000000e+01 0
0.000000e+00 0.000000e+00 0
0.000000e+00 0.000000e+00 0
0.000000e+00 0.000000e+00 0
0.000000e+00 0.000000e+00 0
0.000000e+00 0.000000e+00 0
0.000000e+00 0.000000e+00 0
0.000000e+00 0.000000e+00 0
0.000000e+00 0.000000e+00 0
0.000000e+00 0.000000e+00 0
0.000000e+00 0.000000e+00 0
0.000000e+00 0.000000e+00 0
0.000000e+00 0.000000e+00 0
0.000000e+00 0.000000e+00 0
0.000000e+00 0.000000e+00 0
0.000000e+00 -5.000000e+01 0
0.000000e+00 -1.000179e+02 0
-8.129767e-03 -1.000406e+02 0
-1.730255e-02 -1.000478e+02 0
-2.700399e-02 -1.000251e+02 0
-2.700399e-02 -5.000000e+01 0
0.000000e+00 0.000000e+00 0
0.000000e+00 0.000000e+00 0
0.000000e+00 0.000000e+00 0
0.000000e+00 0.000000e+00 0
0.000000e+00 0.000000e+00 0
0.000000e+00 0.000000e+00 0
0.000000e+00 0.000000e+00 0
0.000000e+00 0.000000e+00 0
0.000000e+00 0.000000e+00 0
0.000000e+00 0.000000e+00 0
0.000000e+00 0.000000e+00 0
0.000000e+00 0.000000e+00 0
0.000000e+00 0.000000e+00 0
0.000000e+00 0.000000e+00 0
0.000000e+00 -5.000000e+01 0
0.000000e+00 -1.000137e+02 0
-7.066068e-03 -1.000318e+02 0
-1.618761e-02 -1.000382e+02 0
-2.590743e-02 -1.000201e+02 0
-2.590743e-02 -5.000000e+01 0
0.000000e+00 0.000000e+00 0
0.000000e+00 0.000000e+00 0
0.000000e+00 0.000000e+00 0
0.000000e+00 0.000000e+00 0
0.000000e+00 0.000000e+00 0
0.000000e+00 0.000000e+00 0
0.000000e+00 0.000000e+00 0
0.000000e+00 0.000000e+00 0
0.000000e+00 0.000000e+00 0
0.000000e+00 0.000000e+00 0
0.000000e+00 0.000000e+00 0
0.000000e+00 0.000000e+00 0
0.000000e+00 0.000000e+00 0
0.000000e+00 0.000000e+00 0
0.000000e+00 -5.000000e+01 0
0.000000e+00 -1.000098e+02 0
-5.672740e-03 -1.000233e+02 0
-1.453342e-02 -1.000288e+02 0
-2.410278e-02 -1.000153e+02 0
-2.410278e-02 -5.000000e+01 0
0.000000e+00 0.000000e+00 0
0.000000e+00 0.000000e+00 0
0.000000e+00 0.000000e+00 0
0.000000e+00 0.000000e+00 0
0.000000e+00 0.000000e+00 0
0.000000e+00 0.000000e+00 0
0.000000e+00 0.000000e+00 0
0.000000e+00 0.000000e+00 0
0.000000e+00 0.000000e+00 0
0.000000e+00 0.000000e+00 0
0.000000e+00 0.000000e+00 0
0.000000e+00 0.000000e+00 0
0.000000e+00 0.000000e+00 0
0.000000e+00 0.000000e+00 0
0.000000e+00 -5.000000e+01 0
0.000000e+00 -1.000064e+02 0
-3.923229e-03 -1.000156e+02 0
-1.225119e-02 -1.000197e+02 0
-2.142217e-02 -1.000105e+02 0
-2.142217e-02 -5.000000e+01 0
0.000000e+00 0.000000e+00 0
0.000000e+00 0.000000e+00 0
0.000000e+00 0.000000e+00 0
0.000000e+00 0.000000e+00 0
0.000000e+00 0.000000e+00 0
0.000000e+00 0.000000e+00 0
0.000000e+00 0.000000e+00 0
0.000000e+00 0.000000e+00 0
0.000000e+00 0.000000e+00 0
0.000000e+00 0.000000e+00 0
0.000000e+00 0.000000e+00 0
0.000000e+00 0.000000e+00 0
0.000000e+00 0.000000e+00 0
0.000000e+00 0.000000e+00 0
0.000000e+00 -5.000000e+01 0
0.000000e+00 -1.000037e+02 0
-1.848055e-03 -1.000088e+02 0
-9.122014e-03 -1.000112e+02 0
-1.736481e-02 -1.000060e+02 0
-1.736481e-02 -5.000000e+01 0
0.000000e+00 0.000000e+00 0
0.000000e+00 0.000000e+00 0
0.000000e+00 0.000000e+00 0
0.000000e+00 0.000000e+00 0
0.000000e+00 0.000000e+00 0
0.000000e+00 0.000000e+00 0
0.000000e+00 0.000000e+00 0
0.000000e+00 0.000000e+00 0
0.000000e+00 0.000000e+00 0
0.000000e+00 0.000000e+00 0
0.000000e+00 0.000000e+00 0
0.000000e+00 0.000000e+00 0
0.000000e+00 0.000000e+00 0
0.000000e+00 0.000000e+00 0
0.000000e+00 -5.000000e+01 0
0.000000e+00 -1.000016e+02 0
8.786747e-05 -1.000035e+02 0
-5.008993e-03 -1.000040e+02 0
-1.098694e-02 -1.000022e+02 0
-1.098694e-02 -5.000000e+01 0
0.000000e+00 0.000000e+00 0
0.000000e+00 0.000000e+00 0
0.000000e+00 0.000000e+00 0
0.000000e+00 0.000000e+00 0
0.000000e+00 0.000000e+00 0
0.000000e+00 0.000000e+00 0
0.000000e+00 0.000000e+00 0
0.000000e+00 0.000000e+00 0
0.000000e+00 0.000000e+00 0
0.000000e+00 0.000000e+00 0
0.000000e+00 0.000000e+00 0
0.000000e+00 0.000000e+00 0
0.000000e+00 0.000000e+00 0
0.000000e+00 0.000000e+00 0
0.000000e+00 -5.000000e+01 0
0.000000e+00 -1.000000e+02 0
3.793498e-18 -1.000000e+02 0
-1.138049e-17 -1.000000e+02 0
-2.957243e-17 -1.000000e+02 0
-2.974102e-17 -5.000000e+01 0
0.000000e+00 0.000000e+00 0
0.000000e+00 0.000000e+00 0
0.000000e+00 0.000000e+00 0
0.000000e+00 0.000000e+00 0
0.000000e+00 0.000000e+00 0
0.000000e+00 0.000000e+00 0
0.000000e+00 0.000000e+00 0
</DataArray>
<DataArray Name="Type and Neighbourhood" type="Float64" format="ascii" NumberOfComponents="3">
0.000000e+00 0.000000e+00 0
0.000000e+00 0.000000e+00 0
0.000000e+00 0.000000e+00 0
0.000000e+00 0.000000e+00 0
0.000000e+00 0.000000e+00 0
0.000000e+00 0.000000e+00 0
0.000000e+00 0.000000e+00 0
0.000000e+00 0.000000e+00 0
0.000000e+00 0.000000e+00 0
0.000000e+00 0.000000e+00 0
0.000000e+00 0.000000e+00 0
0.000000e+00 0.000000e+00 0