<?xml version="1.0"?>
<VTKFile type="StructuredGrid">
<StructuredGrid WholeExtent="0 19 0 33 0 0 ">
<Piece Extent="0 19 0 33 0 0 ">
<Points>
<DataArray type="Float64" format="ascii" NumberOfComponents="3">
0.000000e+00 0.000000e+00 0.000000e+00
1.052632e-01 0.000000e+00 0.000000e+00
2.105263e-01 0.000000e+00 0.000000e+00
3.157895e-01 0.000000e+00 0.000000e+00
4.210526e-01 0.000000e+00 0.000000e+00
5.263158e-01 0.000000e+00 0.000000e+00
6.315789e-01 0.000000e+00 0.000000e+00
7.368421e-01 0.000000e+00 0.000000e+00
8.421053e-01 0.000000e+00 0.000000e+00
9.473684e-01 0.000000e+00 0.000000e+00
1.052632e+00 0.000000e+00 0.000000e+00
1.157895e+00 0.000000e+00 0.000000e+00
1.263158e+00 0.000000e+00 0.000000e+00
1.368421e+00 0.000000e+00 0.000000e+00
1.473684e+00 0.000000e+00 0.000000e+00
1.578947e+00 0.000000e+00 0.000000e+00
1.684211e+00 0.000000e+00 0.000000e+00
1.789474e+00 0.000000e+00 0.000000e+00
1.894737e+00 0.000000e+00 0.000000e+00
2.000000e+00 0.000000e+00 0.000000e+00
0.000000e+00 1.060606e-01 0.000000e+00
1.052632e-01 1.060606e-01 0.000000e+00
2.105263e-01 1.060606e-01 0.000000e+00
3.157895e-01 1.060606e-01 0.000000e+00
4.210526e-01 1.060606e-01 0.000000e+00
5.263158e-01 1.060606e-01 0.000000e+00
6.315789e-01 1.060606e-01 0.000000e+00
7.368421e-01 1.060606e-01 0.000000e+00
8.421053e-01 1.060606e-01 0.000000e+00
9.473684e-01 1.060606e-01 0.000000e+00
1.052632e+00 1.060606e-01 0.000000e+00
1.157895e+00 1.060606e-01 0.000000e+00
1.263158e+00 1.060606e-01 0.000000e+00
1.368421e+00 1.060606e-01 0.000000e+00
1.473684e+00 1.060606e-01 0.000000e+00
1.578947e+00 1.060606e-01 0.000000e+00
1.684211e+00 1.060606e-01 0.000000e+00
1.789474e+00 1.060606e-01 0.000000e+00
1.894737e+00 1.060606e-01 0.000000e+00
2.000000e+00 1.060606e-01 0.000000e+00
0.000000e+00 2.121212e-01 0.000000e+00
1.052632e-01 2.121212e-01 0.000000e+00
2.105263e-01 2.121212e-01 0.000000e+00
3.157895e-01 2.121212e-01 0.000000e+00
4.210526e-01 2.121212e-01 0.000000e+00
5.263158e-01 2.121212e-01 0.000000e+00
6.315789e-01 2.121212e-01 0.000000e+00
7.368421e-01 2.121212e-01 0.000000e+00
8.421053e-01 2.121212e-01 0.000000e+00
9.473684e-01 2.121212e-01 0.000000e+00
1.052632e+00 2.121212e-01 0.000000e+00
1.157895e+00 2.121212e-01 0.000000e+00
1.263158e+00 2.121212e-01 0.000000e+00
1.368421e+00 2.121212e-01 0.000000e+00
1.473684e+00 2.121212e-01 0.000000e+00
1.578947e+00 2.121212e-01 0.000000e+00
1.684211e+00 2.121212e-01 0.000000e+00
1.789474e+00 2.121212e-01 0.000000e+00
1.894737e+00 2.121212e-01 0.000000e+00
2.000000e+00 2.121212e-01 0.000000e+00
0.000000e+00 3.181818e-01 0.000000e+00
1.052632e-01 3.181818e-01 0.000000e+00
2.105263e-01 3.181818e-01 0.000000e+00
3.157895e-01 3.181818e-01 0.000000e+00
4.210526e-01 3.181818e-01 0.000000e+00
5.263158e-01 3.181818e-01 0.000000e+00
6.315789e-01 3.181818e-01 0.000000e+00
7.368421e-01 3.181818e-01 0.000000e+00
8.421053e-01 3.181818e-01 0.000000e+00
9.473684e-01 3.181818e-01 0.000000e+00
1.052632e+00 3.181818e-01 0.000000e+00
1.157895e+00 3.181818e-01 0.000000e+00
1.263158e+00 3.181818e-01 0.000000e+00
1.368421e+00 3.181818e-01 0.000000e+00
1.473684e+00 3.181818e-01 0.000000e+00
1.578947e+00 3.181818e-01 0.000000e+00
1.684211e+00 3.181818e-01 0.000000e+00
1.789474e+00 3.181818e-01 0.000000e+00
1.894737e+00 3.181818e-01 0.000000e+00
2.000000e+00 3.181818e-01 0.000000e+00
0.000000e+00 4.242424e-01 0.000000e+00
1.052632e-01 4.242424e-01 0.000000e+00
2.105263e-01 4.242424e-01 0.000000e+00
3.157895e-01 4.242424e-01 0.000000e+00
4.210526e-01 4.242424e-01 0.000000e+00
5.263158e-01 4.242424e-01 0.000000e+00
6.315789e-01 4.242424e-01 0.000000e+00
7.368421e-01 4.242424e-01 0.000000e+00
8.421053e-01 4.242424e-01 0.000000e+00
9.473684e-01 4.242424e-01 0.000000e+00
1.052632e+00 4.242424e-01 0.000000e+00
1.157895e+00 4.242424e-01 0.000000e+00
1.263158e+00 4.242424e-01 0.000000e+00
1.368421e+00 4.242424e-01 0.000000e+00
1.473684e+00 4.242424e-01 0.000000e+00
1.578947e+00 4.242424e-01 0.000000e+00
1.684211e+00 4.242424e-01 0.000000e+00
1.789474e+00 4.242424e-01 0.000000e+00
1.894737e+00 4.242424e-01 0.000000e+00
2.000000e+00 4.242424e-01 0.000000e+00
0.000000e+00 5.303030e-01 0.000000e+00
1.052632e-01 5.303030e-01 0.000000e+00
2.105263e-01 5.303030e-01 0.000000e+00
3.157895e-01 5.303030e-01 0.000000e+00
4.210526e-01 5.303030e-01 0.000000e+00
5.263158e-01 5.303030e-01 0.000000e+00
6.315789e-01 5.303030e-01 0.000000e+00
7.368421e-01 5.303030e-01 0.000000e+00
8.421053e-01 5.303030e-01 0.000000e+00
9.473684e-01 5.303030e-01 0.000000e+00
1.052632e+00 5.303030e-01 0.000000e+00
1.157895e+00 5.303030e-01 0.000000e+00
1.263158e+00 5.303030e-01 0.000000e+00
1.368421e+00 5.303030e-01 0.000000e+00
1.473684e+00 5.303030e-01 0.000000e+00
1.578947e+00 5.303030e-01 0.000000e+00
1.684211e+00 5.303030e-01 0.000000e+00
1.789474e+00 5.303030e-01 0.000000e+00
1.894737e+00 5.303030e-01 0.000000e+00
2.000000e+00 5.303030e-01 0.000000e+00
0.000000e+00 6.363636e-01 0.000000e+00
1.052632e-01 6.363636e-01 0.000000e+00
2.105263e-01 6.363636e-01 0.000000e+00
3.157895e-01 6.363636e-01 0.000000e+00
4.210526e-01 6.363636e-01 0.000000e+00
5.263158e-01 6.363636e-01 0.000000e+00
6.315789e-01 6.363636e-01 0.000000e+00
7.368421e-01 6.363636e-01 0.000000e+00
8.421053e-01 6.363636e-01 0.000000e+00
9.473684e-01 6.363636e-01 0.000000e+00
1.052632e+00 6.363636e-01 0.000000e+00
1.157895e+00 6.363636e-01 0.000000e+00
1.263158e+00 6.363636e-01 0.000000e+00
1.368421e+00 6.363636e-01 0.000000e+00
1.473684e+00 6.363636e-01 0.000000e+00
1.578947e+00 6.363636e-01 0.000000e+00
1.684211e+00 6.363636e-01 0.000000e+00
1.789474e+00 6.363636e-01 0.000000e+00
1.894737e+00 6.363636e-01 0.000000e+00
2.000000e+00 6.363636e-01 0.000000e+00
0.000000e+00 7.424242e-01 0.000000e+00
1.052632e-01 7.424242e-01 0.000000e+00
2.105263e-01 7.424242e-01 0.000000e+00
3.157895e-01 7.424242e-01 0.000000e+00
4.210526e-01 7.424242e-01 0.000000e+00
5.263158e-01 7.424242e-01 0.000000e+00
6.315789e-01 7.424242e-01 0.000000e+00
7.368421e-01 7.424242e-01 0.000000e+00
8.421053e-01 7.424242e-01 0.000000e+00
9.473684e-01 7.424242e-01 0.000000e+00
1.052632e+00 7.424242e-01 0.000000e+00
1.157895e+00 7.424242e-01 0.000000e+00
1.263158e+00 7.424242e-01 0.000000e+00
1.368421e+00 7.424242e-01 0.000000e+00
1.473684e+00 7.424242e-01 0.000000e+00
1.578947e+00 7.424242e-01 0.000000e+00
1.684211e+00 7.424242e-01 0.000000e+00
1.789474e+00 7.424242e-01 0.000000e+00
1.894737e+00 7.424242e-01 0.000000e+00
2.000000e+00 7.424242e-01 0.000000e+00
0.000000e+00 8.484848e-01 0.000000e+00
1.052632e-01 8.484848e-01 0.000000e+00
2.105263e-01 8.484848e-01 0.000000e+00
3.157895e-01 8.484848e-01 0.000000e+00
4.210526e-01 8.484848e-01 0.000000e+00
5.263158e-01 8.484848e-01 0.000000e+00
6.315789e-01 8.484848e-01 0.000000e+00
7.368421e-01 8.484848e-01 0.000000e+00
8.421053e-01 8.484848e-01 0.000000e+00
9.473684e-01 8.484848e-01 0.000000e+00
1.052632e+00 8.484848e-01 0.000000e+00
1.157895e+00 8.484848e-01 0.000000e+00
1.263158e+00 8.484848e-01 0.000000e+00
1.368421e+00 8.484848e-01 0.000000e+00
1.473684e+00 8.484848e-01 0.000000e+00
1.578947e+00 8.484848e-01 0.000000e+00
1.684211e+00 8.484848e-01 0.000000e+00
1.789474e+00 8.484848e-01 0.000000e+00
1.894737e+00 8.484848e-01 0.000000e+00
2.000000e+00 8.484848e-01 0.000000e+00
0.000000e+00 9.545455e-01 0.000000e+00
1.052632e-01 9.545455e-01 0.000000e+00
2.105263e-01 9.545455e-01 0.000000e+00
3.157895e-01 9.545455e-01 0.000000e+00
4.210526e-01 9.545455e-01 0.000000e+00
5.263158e-01 9.545455e-01 0.000000e+00
6.315789e-01 9.545455e-01 0.000000e+00
7.368421e-01 9.545455e-01 0.000000e+00
8.421053e-01 9.545455e-01 0.000000e+00
9.473684e-01 9.545455e-01 0.000000e+00
1.052632e+00 9.545455e-01 0.000000e+00
1.157895e+00 9.545455e-01 0.000000e+00
1.263158e+00 9.545455e-01 0.000000e+00
1.368421e+00 9.545455e-01 0.000000e+00
1.473684e+00 9.545455e-01 0.000000e+00
1.578947e+00 9.545455e-01 0.000000e+00
1.684211e+00 9.545455e-01 0.000000e+00
1.789474e+00 9.545455e-01 0.000000e+00
1.894737e+00 9.545455e-01 0.000000e+00
2.000000e+00 9.545455e-01 0.000000e+00
0.000000e+00 1.060606e+00 0.000000e+00
1.052632e-01 1.060606e+00 0.000000e+00
2.105263e-01 1.060606e+00 0.000000e+00
3.157895e-01 1.060606e+00 0.000000e+00
4.210526e-01 1.060606e+00 0.000000e+00
5.263158e-01 1.060606e+00 0.000000e+00
6.315789e-01 1.060606e+00 0.000000e+00
7.368421e-01 1.060606e+00 0.000000e+00
8.421053e-01 1.060606e+00 0.000000e+00
9.473684e-01 1.060606e+00 0.000000e+00
1.052632e+00 1.060606e+00 0.000000e+00
1.157895e+00 1.060606e+00 0.000000e+00
1.263158e+00 1.060606e+00 0.000000e+00
1.368421e+00 1.060606e+00 0.000000e+00
1.473684e+00 1.060606e+00 0.000000e+00
1.578947e+00 1.060606e+00 0.000000e+00
1.684211e+00 1.060606e+00 0.000000e+00
1.789474e+00 1.060606e+00 0.000000e+00
1.894737e+00 1.060606e+00 0.000000e+00
2.000000e+00 1.060606e+00 0.000000e+00
0.000000e+00 1.166667e+00 0.000000e+00
1.052632e-01 1.166667e+00 0.000000e+00
2.105263e-01 1.166667e+00 0.000000e+00
3.157895e-01 1.166667e+00 0.000000e+00
4.210526e-01 1.166667e+00 0.000000e+00
5.263158e-01 1.166667e+00 0.000000e+00
6.315789e-01 1.166667e+00 0.000000e+00
7.368421e-01 1.166667e+00 0.000000e+00
8.421053e-01 1.166667e+00 0.000000e+00
9.473684e-01 1.166667e+00 0.000000e+00
1.052632e+00 1.166667e+00 0.000000e+00
1.157895e+00 1.166667e+00 0.000000e+00
1.263158e+00 1.166667e+00 0.000000e+00
1.368421e+00 1.166667e+00 0.000000e+00
1.473684e+00 1.166667e+00 0.000000e+00
1.578947e+00 1.166667e+00 0.000000e+00
1.684211e+00 1.166667e+00 0.000000e+00
1.789474e+00 1.166667e+00 0.000000e+00
1.894737e+00 1.166667e+00 0.000000e+00
2.000000e+00 1.166667e+00 0.000000e+00
0.000000e+00 1.272727e+00 0.000000e+00
1.052632e-01 1.272727e+00 0.000000e+00
2.105263e-01 1.272727e+00 0.000000e+00
3.157895e-01 1.272727e+00 0.000000e+00
4.210526e-01 1.272727e+00 0.000000e+00
5.263158e-01 1.272727e+00 0.000000e+00
6.315789e-01 1.272727e+00 0.000000e+00
7.368421e-01 1.272727e+00 0.000000e+00
8.421053e-01 1.272727e+00 0.000000e+00
9.473684e-01 1.272727e+00 0.000000e+00
1.052632e+00 1.272727e+00 0.000000e+00
[...]
<PointData>
<DataArray Name="Velocity" type="Float64" format="ascii" NumberOfComponents="3">
0.000000e+00 0.000000e+00 0
0.000000e+00 0.000000e+00 0
0.000000e+00 0.000000e+00 0
0.000000e+00 0.000000e+00 0
0.000000e+00 0.000000e+00 0
0.000000e+00 0.000000e+00 0
0.000000e+00 0.000000e+00 0
0.000000e+00 0.000000e+00 0
0.000000e+00 0.000000e+00 0
0.000000e+00 0.000000e+00 0
0.000000e+00 0.000000e+00 0
-1.048691e-15 0.000000e+00 0
0.000000e+00 0.000000e+00 0
0.000000e+00 0.000000e+00 0
0.000000e+00 0.000000e+00 0
1.992113e-15 0.000000e+00 0
0.000000e+00 0.000000e+00 0
0.000000e+00 0.000000e+00 0
2.467080e+00 0.000000e+00 0
0.000000e+00 0.000000e+00 0
0.000000e+00 0.000000e+00 0
-2.382990e+01 1.313916e+01 0
-2.017910e+01 7.118050e+00 0
-5.860612e+01 1.083544e+01 0
-6.817389e+01 4.079288e+00 0
-6.948093e+01 -3.242196e+00 0
-6.302781e+01 -1.172410e+01 0
-4.823351e+01 -1.987352e+01 0
-2.657033e+01 -2.226180e+01 0
-7.560078e+00 -1.763790e+01 0
9.057128e+00 -1.490192e+01 0
2.535261e+01 -1.714517e+01 0
4.384122e+01 -1.682567e+01 0
5.805067e+01 -1.172255e+01 0
6.645432e+01 -5.036921e+00 0
6.821834e+01 1.957595e+00 0
6.216422e+01 7.705491e+00 0
5.017073e+01 1.668159e+01 0
3.142780e+01 2.247431e+01 0
0.000000e+00 1.077343e+01 0
0.000000e+00 0.000000e+00 0
-1.975704e+01 4.168321e+01 0
-3.726438e+01 3.262377e+01 0
-5.181659e+01 2.083840e+01 0
-6.019090e+01 9.110653e+00 0
-6.264113e+01 -5.185065e+00 0
-5.766522e+01 -2.140839e+01 0
-4.580375e+01 -3.673368e+01 0
-2.672186e+01 -4.098156e+01 0
-9.851096e+00 -3.589736e+01 0
8.138139e+00 -3.316203e+01 0
2.517046e+01 -3.504760e+01 0
4.307407e+01 -3.294577e+01 0
5.546964e+01 -2.278442e+01 0
6.389366e+01 -1.024469e+01 0
6.825210e+01 4.322602e+00 0
6.144244e+01 1.818433e+01 0
4.591428e+01 2.897139e+01 0
2.876158e+01 4.418141e+01 0
0.000000e+00 -1.143609e-13 0
0.000000e+00 0.000000e+00 0
-1.584730e+01 5.644825e+01 0
-2.818470e+01 4.457094e+01 0
-3.747994e+01 3.141740e+01 0
-4.534954e+01 1.498584e+01 0
-5.041184e+01 -5.787003e+00 0
-4.728687e+01 -2.868904e+01 0
-3.993463e+01 -5.105129e+01 0
-2.335537e+01 -5.848682e+01 0
-7.803357e+00 -5.276200e+01 0
7.976539e+00 -5.018879e+01 0
2.402139e+01 -5.234576e+01 0
4.045659e+01 -4.735439e+01 0
4.976531e+01 -3.269987e+01 0
5.858926e+01 -1.791622e+01 0
5.407097e+01 4.427385e+00 0
4.734785e+01 3.021254e+01 0
3.500039e+01 4.761215e+01 0
1.911871e+01 6.273498e+01 0
0.000000e+00 -1.491664e-13 0
0.000000e+00 0.000000e+00 0
-9.756572e+00 6.763175e+01 0
-1.694416e+01 5.197062e+01 0
-1.899510e+01 3.813327e+01 0
-1.607555e+01 2.214052e+01 0
-1.886984e+01 -3.233062e+00 0
-2.937702e+01 -3.196497e+01 0
-3.070845e+01 -6.084648e+01 0
-1.824141e+01 -7.335626e+01 0
-5.298796e+00 -6.746663e+01 0
7.974052e+00 -6.522787e+01 0
2.187383e+01 -6.777371e+01 0
3.581449e+01 -5.888473e+01 0
4.165552e+01 -4.105446e+01 0
2.761980e+01 -1.458297e+01 0
5.388465e+00 1.564918e+01 0
2.414871e+01 3.739938e+01 0
1.742372e+01 5.741438e+01 0
9.449291e+00 7.544339e+01 0
0.000000e+00 -1.789997e-13 0
0.000000e+00 -1.355778e+00 0
-2.820217e+00 7.280348e+01 0
-6.893172e+00 5.316216e+01 0
-7.018357e+00 3.054221e+01 0
1.566726e+01 1.485962e+01 0
1.772396e+01 7.615230e+00 0
-1.152888e+01 -1.676074e+01 0
-1.968167e+01 -6.227126e+01 0
-1.253880e+01 -8.408897e+01 0
-2.883183e+00 -7.917606e+01 0
7.578558e+00 -7.756726e+01 0
1.870539e+01 -8.039711e+01 0
2.906296e+01 -6.728595e+01 0
3.038635e+01 -2.582757e+01 0
0.000000e+00 3.509735e+01 0
-4.665592e+01 2.578101e+01 0
7.666323e+00 1.831405e+01 0
8.565258e+00 6.265087e+01 0
3.445305e+00 8.029070e+01 0
0.000000e+00 -1.988885e-13 0
0.000000e+00 4.018284e+01 0
3.000768e+00 7.312963e+01 0
1.728111e+00 5.512287e+01 0
2.964095e+00 1.504152e+01 0
1.918921e+01 -2.789238e+00 0
1.526907e+01 2.416911e+01 0
-2.451394e+00 8.068408e+00 0
-1.101947e+01 -5.748453e+01 0
-8.572982e+00 -9.028200e+01 0
-1.334694e+00 -8.773639e+01 0
6.634487e+00 -8.698000e+01 0
1.490739e+01 -8.942088e+01 0
2.099773e+01 -7.065417e+01 0
2.020592e+01 -2.502976e+01 0
0.000000e+00 -1.961088e-03 0
-3.229871e+01 -1.961088e-03 0
0.000000e+00 2.059202e+01 0
1.252200e+01 5.806972e+01 0
-1.005090e-01 8.350347e+01 0
0.000000e+00 -1.889441e-13 0
0.000000e+00 0.000000e+00 0
5.254058e+00 6.845306e+01 0
9.709233e+00 5.095972e+01 0
-4.694903e+00 1.258844e+01 0
5.211188e+00 -7.134554e+00 0
0.000000e+00 0.000000e+00 0
0.000000e+00 -1.050680e-03 0
-8.644919e+00 -4.721233e+01 0
-7.099627e+00 -9.505194e+01 0
-7.247252e-01 -9.449874e+01 0
5.428469e+00 -9.393239e+01 0
1.136842e+01 -9.486917e+01 0
1.490480e+01 -7.262462e+01 0
1.490480e+01 -2.502976e+01 0
0.000000e+00 0.000000e+00 0
0.000000e+00 0.000000e+00 0
0.000000e+00 2.059202e+01 0
6.823430e+00 6.063041e+01 0
-4.100392e+00 8.520733e+01 0
0.000000e+00 -1.889441e-13 0
0.000000e+00 0.000000e+00 0
1.636546e+00 6.015038e+01 0
1.389411e+01 6.326821e+01 0
-4.927919e+00 3.668934e+01 0
0.000000e+00 0.000000e+00 0
0.000000e+00 0.000000e+00 0
0.000000e+00 -1.050680e-03 0
-6.433655e+00 -4.899526e+01 0
-5.784412e+00 -9.997027e+01 0
-2.429633e-01 -1.003594e+02 0
4.446923e+00 -9.916475e+01 0
8.804665e+00 -9.896900e+01 0
1.148888e+01 -7.421735e+01 0
6.483566e+00 -2.502976e+01 0
0.000000e+00 0.000000e+00 0
-3.229871e+01 0.000000e+00 0
0.000000e+00 -1.751642e-03 0
-4.924429e+00 4.094659e+01 0
-9.621853e+00 8.284264e+01 0
0.000000e+00 -1.789997e-13 0
0.000000e+00 0.000000e+00 0
-6.733046e-01 5.313623e+01 0
6.961417e+00 5.757392e+01 0
4.978172e+00 3.868760e+01 0
0.000000e+00 0.000000e+00 0
0.000000e+00 0.000000e+00 0
0.000000e+00 -1.050680e-03 0
-1.761559e+00 -4.843525e+01 0
-3.387038e+00 -1.018583e+02 0
2.231127e-01 -1.048076e+02 0
3.766293e+00 -1.030486e+02 0
7.351780e+00 -1.019645e+02 0
6.908776e+00 -5.029941e+01 0
1.903463e+00 0.000000e+00 0
0.000000e+00 -2.095044e-02 0
-3.229871e+01 -2.095044e-02 0
0.000000e+00 -1.751642e-03 0
-2.980254e+00 4.353311e+01 0
-6.937605e-01 7.900905e+01 0
0.000000e+00 -1.491664e-13 0
0.000000e+00 4.637765e-01 0
0.000000e+00 5.313623e+01 0
0.000000e+00 5.757392e+01 0
0.000000e+00 3.868760e+01 0
0.000000e+00 0.000000e+00 0
0.000000e+00 0.000000e+00 0
0.000000e+00 -1.099833e-18 0
0.000000e+00 -4.960329e+01 0
-1.004655e+00 -1.051720e+02 0
-6.516368e-02 -1.085221e+02 0
2.885382e+00 -1.063474e+02 0
6.711781e+00 -1.022688e+02 0
4.527759e+00 -4.887622e+01 0
4.527759e+00 -1.432041e-03 0
0.000000e+00 -2.193054e-17 0
5.032931e-17 -2.193054e-17 0
2.385927e-02 -1.833587e-18 0
0.000000e+00 3.650362e+01 0
2.554408e+01 7.137732e+01 0
0.000000e+00 -1.441942e-13 0
0.000000e+00 0.000000e+00 0
0.000000e+00 0.000000e+00 0
0.000000e+00 3.868760e+01 0
0.000000e+00 3.868760e+01 0
0.000000e+00 0.000000e+00 0
0.000000e+00 0.000000e+00 0
0.000000e+00 0.000000e+00 0
0.000000e+00 -5.000000e+01 0
0.000000e+00 -1.070822e+02 0
-1.767422e+00 -1.114386e+02 0
4.671075e-01 -1.098768e+02 0
3.844600e+00 -1.037528e+02 0
4.086044e+00 -4.823383e+01 0
2.624296e+00 -1.432041e-03 0
0.000000e+00 -6.690522e-03 0
5.032931e-17 -3.269163e-02 0
2.385927e-02 -2.600111e-02 0
0.000000e+00 3.650362e+01 0
1.986601e+01 9.325738e+01 0
0.000000e+00 -2.386662e-13 0
0.000000e+00 0.000000e+00 0
0.000000e+00 0.000000e+00 0
0.000000e+00 3.868760e+01 0
0.000000e+00 3.868760e+01 0
0.000000e+00 0.000000e+00 0
0.000000e+00 0.000000e+00 0
0.000000e+00 0.000000e+00 0
0.000000e+00 -5.000000e+01 0
0.000000e+00 -1.077312e+02 0
-5.320438e+00 -1.129360e+02 0
-5.426533e+00 -1.120020e+02 0
-6.636711e+00 -1.059152e+02 0
-4.882397e+00 -4.911806e+01 0
0.000000e+00 -2.391859e-02 0
0.000000e+00 -3.060911e-02 0
0.000000e+00 -6.690522e-03 0
0.000000e+00 0.000000e+00 0
0.000000e+00 0.000000e+00 0
0.000000e+00 6.018395e+01 0
0.000000e+00 -2.585551e-13 0
0.000000e+00 0.000000e+00 0
0.000000e+00 0.000000e+00 0
0.000000e+00 3.868760e+01 0
0.000000e+00 3.868760e+01 0
0.000000e+00 0.000000e+00 0
0.000000e+00 0.000000e+00 0
0.000000e+00 0.000000e+00 0
0.000000e+00 -5.000000e+01 0
0.000000e+00 -1.067588e+02 0
-1.063329e+01 -1.110083e+02 0
-1.581282e+01 -1.085506e+02 0
-2.495136e+01 -1.043011e+02 0
-6.344146e+00 -5.000000e+01 0
-5.358042e+00 3.851550e-15 0
-5.358042e+00 -3.719632e-14 0
0.000000e+00 -2.118287e+01 0
0.000000e+00 -2.118287e+01 0
0.000000e+00 0.000000e+00 0
0.000000e+00 6.074333e+01 0
0.000000e+00 -2.486107e-13 0
0.000000e+00 0.000000e+00 0
0.000000e+00 0.000000e+00 0
0.000000e+00 0.000000e+00 0
0.000000e+00 0.000000e+00 0
0.000000e+00 0.000000e+00 0
0.000000e+00 0.000000e+00 0
0.000000e+00 0.000000e+00 0
0.000000e+00 -5.000000e+01 0
0.000000e+00 -1.035580e+02 0
-1.594915e+01 -1.035441e+02 0
-2.952266e+01 -9.757542e+01 0
-5.304753e+01 -4.758937e+01 0
-4.667689e+01 -1.456234e-03 0
-6.447024e+01 1.839710e+00 0
-3.131769e+01 -1.776699e+01 0
-3.823461e+01 -1.960816e+01 0
0.000000e+00 0.000000e+00 0
0.000000e+00 0.000000e+00 0
0.000000e+00 6.439599e+01 0
0.000000e+00 -2.684995e-13 0
0.000000e+00 0.000000e+00 0
0.000000e+00 0.000000e+00 0
0.000000e+00 0.000000e+00 0
0.000000e+00 0.000000e+00 0
0.000000e+00 0.000000e+00 0
0.000000e+00 0.000000e+00 0
0.000000e+00 0.000000e+00 0
0.000000e+00 -5.000000e+01 0
0.000000e+00 -9.875251e+01 0
-1.379404e+01 -8.932566e+01 0
-2.149492e+01 -7.117117e+01 0
-3.031053e+01 -5.237584e+01 0
-2.477963e+01 -5.869394e+01 0
-7.231400e+01 -4.504426e+01 0
-7.750044e+01 -1.536836e+01 0
-9.270400e+01 -7.240211e+00 0
-5.437086e+01 7.562421e-15 0
-5.437086e+01 5.124382e-14 0
-5.029328e+01 6.088508e+01 0
0.000000e+00 -2.585551e-13 0
0.000000e+00 0.000000e+00 0
0.000000e+00 0.000000e+00 0
0.000000e+00 0.000000e+00 0
0.000000e+00 0.000000e+00 0
0.000000e+00 0.000000e+00 0
0.000000e+00 0.000000e+00 0
0.000000e+00 0.000000e+00 0
0.000000e+00 -5.000000e+01 0
0.000000e+00 -9.772502e+01 0
-6.887772e+00 -8.995184e+01 0
-2.592746e+00 -8.093380e+01 0
1.086825e+01 -7.750493e+01 0
3.473065e+01 -4.034911e+01 0
1.488055e-01 2.895014e+01 0
-3.819019e+01 2.621186e+01 0
-5.446939e+01 -1.153139e+01 0
-5.437086e+01 3.612225e+00 0
-5.437086e+01 2.447684e+01 0
-5.029328e+01 4.174985e+01 0
0.000000e+00 -1.193331e-13 0
0.000000e+00 0.000000e+00 0
0.000000e+00 0.000000e+00 0
0.000000e+00 0.000000e+00 0
0.000000e+00 0.000000e+00 0
0.000000e+00 0.000000e+00 0
0.000000e+00 0.000000e+00 0
0.000000e+00 0.000000e+00 0
0.000000e+00 -5.000000e+01 0
0.000000e+00 -9.809030e+01 0
-3.148534e+00 -9.299102e+01 0
1.654863e+00 -8.906171e+01 0
1.018821e+01 -8.998199e+01 0
2.018601e+01 -4.789328e+01 0
1.335060e+01 2.842901e+01 0
1.335060e+01 3.050129e+01 0
0.000000e+00 -7.241962e+00 0
0.000000e+00 3.612225e+00 0
0.000000e+00 2.447684e+01 0
0.000000e+00 2.266022e+01 0
0.000000e+00 -3.729160e-14 0
0.000000e+00 0.000000e+00 0
0.000000e+00 0.000000e+00 0
0.000000e+00 0.000000e+00 0
0.000000e+00 0.000000e+00 0
0.000000e+00 0.000000e+00 0
0.000000e+00 0.000000e+00 0
0.000000e+00 0.000000e+00 0
0.000000e+00 -5.000000e+01 0
0.000000e+00 -9.874627e+01 0
-1.333606e+00 -9.581288e+01 0
2.172228e+00 -9.437158e+01 0
6.789332e+00 -9.617646e+01 0
1.093691e+01 -4.887150e+01 0
0.000000e+00 0.000000e+00 0
0.000000e+00 0.000000e+00 0
0.000000e+00 0.000000e+00 0
0.000000e+00 0.000000e+00 0
0.000000e+00 0.000000e+00 0
0.000000e+00 -1.042789e-03 0
0.000000e+00 4.400457e-18 0
0.000000e+00 0.000000e+00 0
0.000000e+00 0.000000e+00 0
0.000000e+00 0.000000e+00 0
0.000000e+00 0.000000e+00 0
0.000000e+00 0.000000e+00 0
0.000000e+00 0.000000e+00 0
0.000000e+00 0.000000e+00 0
0.000000e+00 -5.000000e+01 0
0.000000e+00 -9.927811e+01 0
-5.557831e-01 -9.771123e+01 0
1.554323e+00 -9.724619e+01 0
3.688951e+00 -9.881307e+01 0
4.808970e+00 -5.000000e+01 0
0.000000e+00 0.000000e+00 0
0.000000e+00 0.000000e+00 0
0.000000e+00 0.000000e+00 0
0.000000e+00 0.000000e+00 0
0.000000e+00 0.000000e+00 0
0.000000e+00 -1.042789e-03 0
0.000000e+00 4.400457e-18 0
0.000000e+00 0.000000e+00 0
0.000000e+00 0.000000e+00 0
0.000000e+00 0.000000e+00 0
0.000000e+00 0.000000e+00 0
0.000000e+00 0.000000e+00 0
0.000000e+00 0.000000e+00 0
0.000000e+00 0.000000e+00 0
0.000000e+00 -5.000000e+01 0
0.000000e+00 -9.961732e+01 0
-2.444682e-01 -9.881002e+01 0
9.110056e-01 -9.864847e+01 0
1.843012e+00 -9.945577e+01 0
1.843012e+00 -5.000000e+01 0
0.000000e+00 0.000000e+00 0
0.000000e+00 0.000000e+00 0
0.000000e+00 0.000000e+00 0
0.000000e+00 0.000000e+00 0
0.000000e+00 0.000000e+00 0
0.000000e+00 0.000000e+00 0
0.000000e+00 0.000000e+00 0
0.000000e+00 0.000000e+00 0
0.000000e+00 0.000000e+00 0
0.000000e+00 0.000000e+00 0
0.000000e+00 0.000000e+00 0
0.000000e+00 0.000000e+00 0
0.000000e+00 0.000000e+00 0
0.000000e+00 0.000000e+00 0
0.000000e+00 -5.000000e+01 0
0.000000e+00 -9.981175e+01 0
-1.165255e-01 -9.940909e+01 0
4.949119e-01 -9.934948e+01 0
9.310109e-01 -9.975214e+01 0
9.310109e-01 -5.000000e+01 0
0.000000e+00 0.000000e+00 0
0.000000e+00 0.000000e+00 0
0.000000e+00 0.000000e+00 0
0.000000e+00 0.000000e+00 0
0.000000e+00 0.000000e+00 0
0.000000e+00 0.000000e+00 0
0.000000e+00 0.000000e+00 0
0.000000e+00 0.000000e+00 0
0.000000e+00 0.000000e+00 0
0.000000e+00 0.000000e+00 0
0.000000e+00 0.000000e+00 0
0.000000e+00 0.000000e+00 0
0.000000e+00 0.000000e+00 0
0.000000e+00 0.000000e+00 0
0.000000e+00 -5.000000e+01 0
0.000000e+00 -9.991675e+01 0
-6.082719e-02 -9.972552e+01 0
2.569614e-01 -9.970394e+01 0
4.683181e-01 -9.989517e+01 0
4.683181e-01 -5.000000e+01 0
0.000000e+00 0.000000e+00 0
0.000000e+00 0.000000e+00 0
0.000000e+00 0.000000e+00 0
0.000000e+00 0.000000e+00 0
0.000000e+00 0.000000e+00 0
0.000000e+00 0.000000e+00 0
0.000000e+00 0.000000e+00 0
0.000000e+00 0.000000e+00 0
0.000000e+00 0.000000e+00 0
0.000000e+00 0.000000e+00 0
0.000000e+00 0.000000e+00 0
0.000000e+00 0.000000e+00 0
0.000000e+00 0.000000e+00 0
0.000000e+00 0.000000e+00 0
0.000000e+00 -5.000000e+01 0
0.000000e+00 -9.997092e+01 0
-3.501463e-02 -9.988846e+01 0
1.272178e-01 -9.988263e+01 0
2.298926e-01 -9.996510e+01 0
2.298926e-01 -5.000000e+01 0
0.000000e+00 0.000000e+00 0
0.000000e+00 0.000000e+00 0
0.000000e+00 0.000000e+00 0
0.000000e+00 0.000000e+00 0
0.000000e+00 0.000000e+00 0
0.000000e+00 0.000000e+00 0
0.000000e+00 0.000000e+00 0
0.000000e+00 0.000000e+00 0
0.000000e+00 0.000000e+00 0
0.000000e+00 0.000000e+00 0
0.000000e+00 0.000000e+00 0
0.000000e+00 0.000000e+00 0
0.000000e+00 0.000000e+00 0
0.000000e+00 0.000000e+00 0
0.000000e+00 -5.000000e+01 0
0.000000e+00 -9.999737e+01 0
-2.233506e-02 -9.996961e+01 0
5.807735e-02 -9.997085e+01 0
1.061924e-01 -9.999862e+01 0
1.061924e-01 -5.000000e+01 0
0.000000e+00 0.000000e+00 0
0.000000e+00 0.000000e+00 0
0.000000e+00 0.000000e+00 0
0.000000e+00 0.000000e+00 0
0.000000e+00 0.000000e+00 0
0.000000e+00 0.000000e+00 0
0.000000e+00 0.000000e+00 0
0.000000e+00 0.000000e+00 0
0.000000e+00 0.000000e+00 0
0.000000e+00 0.000000e+00 0
0.000000e+00 0.000000e+00 0
0.000000e+00 0.000000e+00 0
0.000000e+00 0.000000e+00 0
0.000000e+00 0.000000e+00 0
0.000000e+00 -5.000000e+01 0
0.000000e+00 -1.000091e+02 0
-1.571015e-02 -1.000076e+02 0
2.180642e-02 -1.000121e+02 0
4.197986e-02 -1.000136e+02 0
4.197986e-02 -5.000000e+01 0
0.000000e+00 0.000000e+00 0
0.000000e+00 0.000000e+00 0
0.000000e+00 0.000000e+00 0
0.000000e+00 0.000000e+00 0
0.000000e+00 0.000000e+00 0
0.000000e+00 0.000000e+00 0
0.000000e+00 0.000000e+00 0
0.000000e+00 0.000000e+00 0
0.000000e+00 0.000000e+00 0
0.000000e+00 0.000000e+00 0
0.000000e+00 0.000000e+00 0
0.000000e+00 0.000000e+00 0
0.000000e+00 0.000000e+00 0
0.000000e+00 0.000000e+00 0
0.000000e+00 -5.000000e+01 0
0.000000e+00 -1.000130e+02 0
-1.193901e-02 -1.000231e+02 0
3.149732e-03 -1.000290e+02 0
8.880696e-03 -1.000189e+02 0
8.880696e-03 -5.000000e+01 0
0.000000e+00 0.000000e+00 0
0.000000e+00 0.000000e+00 0
0.000000e+00 0.000000e+00 0
0.000000e+00 0.000000e+00 0
0.000000e+00 0.000000e+00 0
0.000000e+00 0.000000e+00 0
0.000000e+00 0.000000e+00 0
0.000000e+00 0.000000e+00 0
0.000000e+00 0.000000e+00 0
0.000000e+00 0.000000e+00 0
0.000000e+00 0.000000e+00 0
0.000000e+00 0.000000e+00 0
0.000000e+00 0.000000e+00 0
0.000000e+00 0.000000e+00 0
0.000000e+00 -5.000000e+01 0
0.000000e+00 -1.000131e+02 0
-9.480366e-03 -1.000268e+02 0
-6.047163e-03 -1.000331e+02 0
-7.781375e-03 -1.000194e+02 0
-7.781375e-03 -5.000000e+01 0
0.000000e+00 0.000000e+00 0
0.000000e+00 0.000000e+00 0
0.000000e+00 0.000000e+00 0
0.000000e+00 0.000000e+00 0
0.000000e+00 0.000000e+00 0
0.000000e+00 0.000000e+00 0
0.000000e+00 0.000000e+00 0
0.000000e+00 0.000000e+00 0
0.000000e+00 0.000000e+00 0
0.000000e+00 0.000000e+00 0
0.000000e+00 0.000000e+00 0
0.000000e+00 0.000000e+00 0
0.000000e+00 0.000000e+00 0
0.000000e+00 0.000000e+00 0
0.000000e+00 -5.000000e+01 0
0.000000e+00 -1.000112e+02 0
-7.531953e-03 -1.000247e+02 0
-1.004012e-02 -1.000307e+02 0
-1.557172e-02 -1.000172e+02 0
-1.557172e-02 -5.000000e+01 0
0.000000e+00 0.000000e+00 0
0.000000e+00 0.000000e+00 0
0.000000e+00 0.000000e+00 0
0.000000e+00 0.000000e+00 0
0.000000e+00 0.000000e+00 0
0.000000e+00 0.000000e+00 0
0.000000e+00 0.000000e+00 0
0.000000e+00 0.000000e+00 0
0.000000e+00 0.000000e+00 0
0.000000e+00 0.000000e+00 0
0.000000e+00 0.000000e+00 0
0.000000e+00 0.000000e+00 0
0.000000e+00 0.000000e+00 0
0.000000e+00 0.000000e+00 0
0.000000e+00 -5.000000e+01 0
0.000000e+00 -1.000086e+02 0
-5.636019e-03 -1.000198e+02 0
-1.099079e-02 -1.000250e+02 0
-1.833280e-02 -1.000138e+02 0
-1.833280e-02 -5.000000e+01 0
0.000000e+00 0.000000e+00 0
0.000000e+00 0.000000e+00 0
0.000000e+00 0.000000e+00 0
0.000000e+00 0.000000e+00 0
0.000000e+00 0.000000e+00 0
0.000000e+00 0.000000e+00 0
0.000000e+00 0.000000e+00 0
0.000000e+00 0.000000e+00 0
0.000000e+00 0.000000e+00 0
0.000000e+00 0.000000e+00 0
0.000000e+00 0.000000e+00 0
0.000000e+00 0.000000e+00 0
0.000000e+00 0.000000e+00 0
0.000000e+00 0.000000e+00 0
0.000000e+00 -5.000000e+01 0
0.000000e+00 -1.000059e+02 0
-3.540421e-03 -1.000140e+02 0
-9.969545e-03 -1.000179e+02 0
-1.793490e-02 -1.000098e+02 0
-1.793490e-02 -5.000000e+01 0
0.000000e+00 0.000000e+00 0
0.000000e+00 0.000000e+00 0
0.000000e+00 0.000000e+00 0
0.000000e+00 0.000000e+00 0
0.000000e+00 0.000000e+00 0
0.000000e+00 0.000000e+00 0
0.000000e+00 0.000000e+00 0
0.000000e+00 0.000000e+00 0
0.000000e+00 0.000000e+00 0
0.000000e+00 0.000000e+00 0
0.000000e+00 0.000000e+00 0
0.000000e+00 0.000000e+00 0
0.000000e+00 0.000000e+00 0
0.000000e+00 0.000000e+00 0
0.000000e+00 -5.000000e+01 0
0.000000e+00 -1.000035e+02 0
-1.230220e-03 -1.000083e+02 0
-7.509429e-03 -1.000105e+02 0
-1.511344e-02 -1.000058e+02 0
-1.511344e-02 -5.000000e+01 0
0.000000e+00 0.000000e+00 0
0.000000e+00 0.000000e+00 0
0.000000e+00 0.000000e+00 0
0.000000e+00 0.000000e+00 0
0.000000e+00 0.000000e+00 0
0.000000e+00 0.000000e+00 0
0.000000e+00 0.000000e+00 0
0.000000e+00 0.000000e+00 0
0.000000e+00 0.000000e+00 0
0.000000e+00 0.000000e+00 0
0.000000e+00 0.000000e+00 0
0.000000e+00 0.000000e+00 0
0.000000e+00 0.000000e+00 0
0.000000e+00 0.000000e+00 0
0.000000e+00 -5.000000e+01 0
0.000000e+00 -1.000017e+02 0
7.325432e-04 -1.000034e+02 0
-3.987072e-03 -1.000039e+02 0
-9.696789e-03 -1.000021e+02 0
-9.696789e-03 -5.000000e+01 0
0.000000e+00 0.000000e+00 0
0.000000e+00 0.000000e+00 0
0.000000e+00 0.000000e+00 0
0.000000e+00 0.000000e+00 0
0.000000e+00 0.000000e+00 0
0.000000e+00 0.000000e+00 0
0.000000e+00 0.000000e+00 0
0.000000e+00 0.000000e+00 0
0.000000e+00 0.000000e+00 0
0.000000e+00 0.000000e+00 0
0.000000e+00 0.000000e+00 0
0.000000e+00 0.000000e+00 0
0.000000e+00 0.000000e+00 0
0.000000e+00 0.000000e+00 0
0.000000e+00 -5.000000e+01 0
0.000000e+00 -1.000000e+02 0
6.373076e-18 -1.000000e+02 0
-8.497435e-18 -1.000000e+02 0
-2.617299e-17 -1.000000e+02 0
-2.609926e-17 -5.000000e+01 0
0.000000e+00 0.000000e+00 0
0.000000e+00 0.000000e+00 0
0.000000e+00 0.000000e+00 0
0.000000e+00 0.000000e+00 0
0.000000e+00 0.000000e+00 0
0.000000e+00 0.000000e+00 0
0.000000e+00 0.000000e+00 0
</DataArray>
<DataArray Name="Type and Neighbourhood" type="Float64" format="ascii" NumberOfComponents="3">
1.100000e+01 8.000000e+00 0
1.000000e+01 0.000000e+00 0
1.100000e+01 2.000000e+00 0
0.000000e+00 0.000000e+00 0
0.000000e+00 0.000000e+00 0
0.000000e+00 0.000000e+00 0
0.000000e+00 0.000000e+00 0
0.000000e+00 0.000000e+00 0
0.000000e+00 0.000000e+00 0
0.000000e+00 0.000000e+00 0
0.000000e+00 0.000000e+00 0
0.000000e+00 0.000000e+00 0