<?xml version="1.0"?>
<VTKFile type="StructuredGrid">
<StructuredGrid WholeExtent="0 19 0 33 0 0 ">
<Piece Extent="0 19 0 33 0 0 ">
<Points>
<DataArray type="Float64" format="ascii" NumberOfComponents="3">
0.000000e+00 0.000000e+00 0.000000e+00
1.052632e-01 0.000000e+00 0.000000e+00
2.105263e-01 0.000000e+00 0.000000e+00
3.157895e-01 0.000000e+00 0.000000e+00
4.210526e-01 0.000000e+00 0.000000e+00
5.263158e-01 0.000000e+00 0.000000e+00
6.315789e-01 0.000000e+00 0.000000e+00
7.368421e-01 0.000000e+00 0.000000e+00
8.421053e-01 0.000000e+00 0.000000e+00
9.473684e-01 0.000000e+00 0.000000e+00
1.052632e+00 0.000000e+00 0.000000e+00
1.157895e+00 0.000000e+00 0.000000e+00
1.263158e+00 0.000000e+00 0.000000e+00
1.368421e+00 0.000000e+00 0.000000e+00
1.473684e+00 0.000000e+00 0.000000e+00
1.578947e+00 0.000000e+00 0.000000e+00
1.684211e+00 0.000000e+00 0.000000e+00
1.789474e+00 0.000000e+00 0.000000e+00
1.894737e+00 0.000000e+00 0.000000e+00
2.000000e+00 0.000000e+00 0.000000e+00
0.000000e+00 1.060606e-01 0.000000e+00
1.052632e-01 1.060606e-01 0.000000e+00
2.105263e-01 1.060606e-01 0.000000e+00
3.157895e-01 1.060606e-01 0.000000e+00
4.210526e-01 1.060606e-01 0.000000e+00
5.263158e-01 1.060606e-01 0.000000e+00
6.315789e-01 1.060606e-01 0.000000e+00
7.368421e-01 1.060606e-01 0.000000e+00
8.421053e-01 1.060606e-01 0.000000e+00
9.473684e-01 1.060606e-01 0.000000e+00
1.052632e+00 1.060606e-01 0.000000e+00
1.157895e+00 1.060606e-01 0.000000e+00
1.263158e+00 1.060606e-01 0.000000e+00
1.368421e+00 1.060606e-01 0.000000e+00
1.473684e+00 1.060606e-01 0.000000e+00
1.578947e+00 1.060606e-01 0.000000e+00
1.684211e+00 1.060606e-01 0.000000e+00
1.789474e+00 1.060606e-01 0.000000e+00
1.894737e+00 1.060606e-01 0.000000e+00
2.000000e+00 1.060606e-01 0.000000e+00
0.000000e+00 2.121212e-01 0.000000e+00
1.052632e-01 2.121212e-01 0.000000e+00
2.105263e-01 2.121212e-01 0.000000e+00
3.157895e-01 2.121212e-01 0.000000e+00
4.210526e-01 2.121212e-01 0.000000e+00
5.263158e-01 2.121212e-01 0.000000e+00
6.315789e-01 2.121212e-01 0.000000e+00
7.368421e-01 2.121212e-01 0.000000e+00
8.421053e-01 2.121212e-01 0.000000e+00
9.473684e-01 2.121212e-01 0.000000e+00
1.052632e+00 2.121212e-01 0.000000e+00
1.157895e+00 2.121212e-01 0.000000e+00
1.263158e+00 2.121212e-01 0.000000e+00
1.368421e+00 2.121212e-01 0.000000e+00
1.473684e+00 2.121212e-01 0.000000e+00
1.578947e+00 2.121212e-01 0.000000e+00
1.684211e+00 2.121212e-01 0.000000e+00
1.789474e+00 2.121212e-01 0.000000e+00
1.894737e+00 2.121212e-01 0.000000e+00
2.000000e+00 2.121212e-01 0.000000e+00
0.000000e+00 3.181818e-01 0.000000e+00
1.052632e-01 3.181818e-01 0.000000e+00
2.105263e-01 3.181818e-01 0.000000e+00
3.157895e-01 3.181818e-01 0.000000e+00
4.210526e-01 3.181818e-01 0.000000e+00
5.263158e-01 3.181818e-01 0.000000e+00
6.315789e-01 3.181818e-01 0.000000e+00
7.368421e-01 3.181818e-01 0.000000e+00
8.421053e-01 3.181818e-01 0.000000e+00
9.473684e-01 3.181818e-01 0.000000e+00
1.052632e+00 3.181818e-01 0.000000e+00
1.157895e+00 3.181818e-01 0.000000e+00
1.263158e+00 3.181818e-01 0.000000e+00
1.368421e+00 3.181818e-01 0.000000e+00
1.473684e+00 3.181818e-01 0.000000e+00
1.578947e+00 3.181818e-01 0.000000e+00
1.684211e+00 3.181818e-01 0.000000e+00
1.789474e+00 3.181818e-01 0.000000e+00
1.894737e+00 3.181818e-01 0.000000e+00
2.000000e+00 3.181818e-01 0.000000e+00
0.000000e+00 4.242424e-01 0.000000e+00
1.052632e-01 4.242424e-01 0.000000e+00
2.105263e-01 4.242424e-01 0.000000e+00
3.157895e-01 4.242424e-01 0.000000e+00
4.210526e-01 4.242424e-01 0.000000e+00
5.263158e-01 4.242424e-01 0.000000e+00
6.315789e-01 4.242424e-01 0.000000e+00
7.368421e-01 4.242424e-01 0.000000e+00
8.421053e-01 4.242424e-01 0.000000e+00
9.473684e-01 4.242424e-01 0.000000e+00
1.052632e+00 4.242424e-01 0.000000e+00
1.157895e+00 4.242424e-01 0.000000e+00
1.263158e+00 4.242424e-01 0.000000e+00
1.368421e+00 4.242424e-01 0.000000e+00
1.473684e+00 4.242424e-01 0.000000e+00
1.578947e+00 4.242424e-01 0.000000e+00
1.684211e+00 4.242424e-01 0.000000e+00
1.789474e+00 4.242424e-01 0.000000e+00
1.894737e+00 4.242424e-01 0.000000e+00
2.000000e+00 4.242424e-01 0.000000e+00
0.000000e+00 5.303030e-01 0.000000e+00
1.052632e-01 5.303030e-01 0.000000e+00
2.105263e-01 5.303030e-01 0.000000e+00
3.157895e-01 5.303030e-01 0.000000e+00
4.210526e-01 5.303030e-01 0.000000e+00
5.263158e-01 5.303030e-01 0.000000e+00
6.315789e-01 5.303030e-01 0.000000e+00
7.368421e-01 5.303030e-01 0.000000e+00
8.421053e-01 5.303030e-01 0.000000e+00
9.473684e-01 5.303030e-01 0.000000e+00
1.052632e+00 5.303030e-01 0.000000e+00
1.157895e+00 5.303030e-01 0.000000e+00
1.263158e+00 5.303030e-01 0.000000e+00
1.368421e+00 5.303030e-01 0.000000e+00
1.473684e+00 5.303030e-01 0.000000e+00
1.578947e+00 5.303030e-01 0.000000e+00
1.684211e+00 5.303030e-01 0.000000e+00
1.789474e+00 5.303030e-01 0.000000e+00
1.894737e+00 5.303030e-01 0.000000e+00
2.000000e+00 5.303030e-01 0.000000e+00
0.000000e+00 6.363636e-01 0.000000e+00
1.052632e-01 6.363636e-01 0.000000e+00
2.105263e-01 6.363636e-01 0.000000e+00
3.157895e-01 6.363636e-01 0.000000e+00
4.210526e-01 6.363636e-01 0.000000e+00
5.263158e-01 6.363636e-01 0.000000e+00
6.315789e-01 6.363636e-01 0.000000e+00
7.368421e-01 6.363636e-01 0.000000e+00
8.421053e-01 6.363636e-01 0.000000e+00
9.473684e-01 6.363636e-01 0.000000e+00
1.052632e+00 6.363636e-01 0.000000e+00
1.157895e+00 6.363636e-01 0.000000e+00
1.263158e+00 6.363636e-01 0.000000e+00
1.368421e+00 6.363636e-01 0.000000e+00
1.473684e+00 6.363636e-01 0.000000e+00
1.578947e+00 6.363636e-01 0.000000e+00
1.684211e+00 6.363636e-01 0.000000e+00
1.789474e+00 6.363636e-01 0.000000e+00
1.894737e+00 6.363636e-01 0.000000e+00
2.000000e+00 6.363636e-01 0.000000e+00
0.000000e+00 7.424242e-01 0.000000e+00
1.052632e-01 7.424242e-01 0.000000e+00
2.105263e-01 7.424242e-01 0.000000e+00
3.157895e-01 7.424242e-01 0.000000e+00
4.210526e-01 7.424242e-01 0.000000e+00
5.263158e-01 7.424242e-01 0.000000e+00
6.315789e-01 7.424242e-01 0.000000e+00
7.368421e-01 7.424242e-01 0.000000e+00
8.421053e-01 7.424242e-01 0.000000e+00
9.473684e-01 7.424242e-01 0.000000e+00
1.052632e+00 7.424242e-01 0.000000e+00
1.157895e+00 7.424242e-01 0.000000e+00
1.263158e+00 7.424242e-01 0.000000e+00
1.368421e+00 7.424242e-01 0.000000e+00
1.473684e+00 7.424242e-01 0.000000e+00
1.578947e+00 7.424242e-01 0.000000e+00
1.684211e+00 7.424242e-01 0.000000e+00
1.789474e+00 7.424242e-01 0.000000e+00
1.894737e+00 7.424242e-01 0.000000e+00
2.000000e+00 7.424242e-01 0.000000e+00
0.000000e+00 8.484848e-01 0.000000e+00
1.052632e-01 8.484848e-01 0.000000e+00
2.105263e-01 8.484848e-01 0.000000e+00
3.157895e-01 8.484848e-01 0.000000e+00
4.210526e-01 8.484848e-01 0.000000e+00
5.263158e-01 8.484848e-01 0.000000e+00
6.315789e-01 8.484848e-01 0.000000e+00
7.368421e-01 8.484848e-01 0.000000e+00
8.421053e-01 8.484848e-01 0.000000e+00
9.473684e-01 8.484848e-01 0.000000e+00
1.052632e+00 8.484848e-01 0.000000e+00
1.157895e+00 8.484848e-01 0.000000e+00
1.263158e+00 8.484848e-01 0.000000e+00
1.368421e+00 8.484848e-01 0.000000e+00
1.473684e+00 8.484848e-01 0.000000e+00
1.578947e+00 8.484848e-01 0.000000e+00
1.684211e+00 8.484848e-01 0.000000e+00
1.789474e+00 8.484848e-01 0.000000e+00
1.894737e+00 8.484848e-01 0.000000e+00
2.000000e+00 8.484848e-01 0.000000e+00
0.000000e+00 9.545455e-01 0.000000e+00
1.052632e-01 9.545455e-01 0.000000e+00
2.105263e-01 9.545455e-01 0.000000e+00
3.157895e-01 9.545455e-01 0.000000e+00
4.210526e-01 9.545455e-01 0.000000e+00
5.263158e-01 9.545455e-01 0.000000e+00
6.315789e-01 9.545455e-01 0.000000e+00
7.368421e-01 9.545455e-01 0.000000e+00
8.421053e-01 9.545455e-01 0.000000e+00
9.473684e-01 9.545455e-01 0.000000e+00
1.052632e+00 9.545455e-01 0.000000e+00
1.157895e+00 9.545455e-01 0.000000e+00
1.263158e+00 9.545455e-01 0.000000e+00
1.368421e+00 9.545455e-01 0.000000e+00
1.473684e+00 9.545455e-01 0.000000e+00
1.578947e+00 9.545455e-01 0.000000e+00
1.684211e+00 9.545455e-01 0.000000e+00
1.789474e+00 9.545455e-01 0.000000e+00
1.894737e+00 9.545455e-01 0.000000e+00
2.000000e+00 9.545455e-01 0.000000e+00
0.000000e+00 1.060606e+00 0.000000e+00
1.052632e-01 1.060606e+00 0.000000e+00
2.105263e-01 1.060606e+00 0.000000e+00
3.157895e-01 1.060606e+00 0.000000e+00
4.210526e-01 1.060606e+00 0.000000e+00
5.263158e-01 1.060606e+00 0.000000e+00
6.315789e-01 1.060606e+00 0.000000e+00
7.368421e-01 1.060606e+00 0.000000e+00
8.421053e-01 1.060606e+00 0.000000e+00
9.473684e-01 1.060606e+00 0.000000e+00
1.052632e+00 1.060606e+00 0.000000e+00
1.157895e+00 1.060606e+00 0.000000e+00
1.263158e+00 1.060606e+00 0.000000e+00
1.368421e+00 1.060606e+00 0.000000e+00
1.473684e+00 1.060606e+00 0.000000e+00
1.578947e+00 1.060606e+00 0.000000e+00
1.684211e+00 1.060606e+00 0.000000e+00
1.789474e+00 1.060606e+00 0.000000e+00
1.894737e+00 1.060606e+00 0.000000e+00
2.000000e+00 1.060606e+00 0.000000e+00
0.000000e+00 1.166667e+00 0.000000e+00
1.052632e-01 1.166667e+00 0.000000e+00
2.105263e-01 1.166667e+00 0.000000e+00
3.157895e-01 1.166667e+00 0.000000e+00
4.210526e-01 1.166667e+00 0.000000e+00
5.263158e-01 1.166667e+00 0.000000e+00
6.315789e-01 1.166667e+00 0.000000e+00
7.368421e-01 1.166667e+00 0.000000e+00
8.421053e-01 1.166667e+00 0.000000e+00
9.473684e-01 1.166667e+00 0.000000e+00
1.052632e+00 1.166667e+00 0.000000e+00
1.157895e+00 1.166667e+00 0.000000e+00
1.263158e+00 1.166667e+00 0.000000e+00
1.368421e+00 1.166667e+00 0.000000e+00
1.473684e+00 1.166667e+00 0.000000e+00
1.578947e+00 1.166667e+00 0.000000e+00
1.684211e+00 1.166667e+00 0.000000e+00
1.789474e+00 1.166667e+00 0.000000e+00
1.894737e+00 1.166667e+00 0.000000e+00
2.000000e+00 1.166667e+00 0.000000e+00
0.000000e+00 1.272727e+00 0.000000e+00
1.052632e-01 1.272727e+00 0.000000e+00
2.105263e-01 1.272727e+00 0.000000e+00
3.157895e-01 1.272727e+00 0.000000e+00
4.210526e-01 1.272727e+00 0.000000e+00
5.263158e-01 1.272727e+00 0.000000e+00
6.315789e-01 1.272727e+00 0.000000e+00
7.368421e-01 1.272727e+00 0.000000e+00
8.421053e-01 1.272727e+00 0.000000e+00
9.473684e-01 1.272727e+00 0.000000e+00
1.052632e+00 1.272727e+00 0.000000e+00
[...]
<PointData>
<DataArray Name="Velocity" type="Float64" format="ascii" NumberOfComponents="3">
0.000000e+00 0.000000e+00 0
0.000000e+00 0.000000e+00 0
0.000000e+00 0.000000e+00 0
0.000000e+00 0.000000e+00 0
0.000000e+00 0.000000e+00 0
0.000000e+00 0.000000e+00 0
0.000000e+00 0.000000e+00 0
0.000000e+00 0.000000e+00 0
0.000000e+00 0.000000e+00 0
0.000000e+00 0.000000e+00 0
0.000000e+00 0.000000e+00 0
-7.429089e-16 0.000000e+00 0
0.000000e+00 0.000000e+00 0
0.000000e+00 0.000000e+00 0
0.000000e+00 0.000000e+00 0
-2.188650e-15 0.000000e+00 0
0.000000e+00 0.000000e+00 0
0.000000e+00 0.000000e+00 0
0.000000e+00 0.000000e+00 0
0.000000e+00 0.000000e+00 0
0.000000e+00 0.000000e+00 0
-2.200877e+01 2.213632e+01 0
-4.031626e+01 1.716446e+01 0
-5.354048e+01 1.116528e+01 0
-6.052372e+01 3.800631e+00 0
-6.050718e+01 -4.336200e+00 0
-5.258190e+01 -1.352570e+01 0
-3.573040e+01 -2.358318e+01 0
-1.025354e+01 -3.144023e+01 0
1.784003e+01 -2.957807e+01 0
4.059794e+01 -2.394534e+01 0
6.285921e+01 -1.819930e+01 0
7.623553e+01 -7.884074e+00 0
7.900278e+01 2.281976e+00 0
7.338068e+01 1.018683e+01 0
6.062855e+01 1.503359e+01 0
4.494619e+01 1.611857e+01 0
3.039523e+01 1.635161e+01 0
1.659816e+01 1.721735e+01 0
0.000000e+00 -3.604855e-14 0
0.000000e+00 0.000000e+00 0
-1.749407e+01 4.062169e+01 0
-3.283084e+01 3.177059e+01 0
-4.358105e+01 2.036054e+01 0
-4.945661e+01 7.019477e+00 0
-4.969163e+01 -8.001980e+00 0
-4.361915e+01 -2.496448e+01 0
-3.001946e+01 -4.264903e+01 0
-1.031430e+01 -5.397627e+01 0
8.884310e+00 -5.123672e+01 0
2.757154e+01 -4.536023e+01 0
4.758339e+01 -3.590757e+01 0
5.908370e+01 -1.626587e+01 0
6.574565e+01 2.876479e+00 0
6.003781e+01 1.851342e+01 0
4.774032e+01 2.864990e+01 0
3.360821e+01 3.046237e+01 0
2.233768e+01 2.856279e+01 0
1.312191e+01 3.062549e+01 0
0.000000e+00 -6.961098e-14 0
0.000000e+00 0.000000e+00 0
-1.339786e+01 5.521588e+01 0
-2.509901e+01 4.344908e+01 0
-3.331832e+01 2.791700e+01 0
-3.775323e+01 9.957497e+00 0
-3.812028e+01 -1.021788e+01 0
-3.559550e+01 -3.334690e+01 0
-2.597907e+01 -5.714033e+01 0
-1.142078e+01 -7.063872e+01 0
2.270021e+00 -6.775092e+01 0
1.663875e+01 -6.293760e+01 0
3.148529e+01 -4.995019e+01 0
3.602022e+01 -2.618392e+01 0
2.993838e+01 3.156417e-01 0
4.952865e+01 2.732357e+01 0
4.325698e+01 4.166342e+01 0
2.804874e+01 4.171365e+01 0
2.121682e+01 3.699310e+01 0
1.122043e+01 3.972426e+01 0
0.000000e+00 -9.198594e-14 0
0.000000e+00 0.000000e+00 0
-9.559151e+00 6.591084e+01 0
-1.766080e+01 5.184196e+01 0
-2.290134e+01 3.311062e+01 0
-2.458369e+01 1.185781e+01 0
-2.197186e+01 -1.017605e+01 0
-2.683491e+01 -3.719766e+01 0
-2.253580e+01 -6.700689e+01 0
-1.253736e+01 -8.243937e+01 0
-3.084720e+00 -7.950882e+01 0
6.221030e+00 -7.479682e+01 0
1.352947e+01 -5.543587e+01 0
1.462849e+01 -1.804694e+01 0
3.532832e+00 8.155658e+00 0
2.305994e+01 2.732357e+01 0
2.305994e+01 4.892665e+01 0
-2.749363e+00 5.130362e+01 0
2.736865e+01 4.551858e+01 0
1.438082e+01 5.200305e+01 0
0.000000e+00 -1.193331e-13 0
0.000000e+00 0.000000e+00 0
-6.222771e+00 7.301048e+01 0
-1.125585e+01 5.689234e+01 0
-1.387562e+01 3.489233e+01 0
-1.305825e+01 9.020975e+00 0
-1.424734e+00 -7.949617e+00 0
-1.102426e+01 -3.285125e+01 0
-1.880651e+01 -7.161876e+01 0
-1.301318e+01 -9.023716e+01 0
-6.560001e+00 -8.665142e+01 0
-1.736258e+00 -7.967766e+01 0
6.205369e-01 -5.896153e+01 0
8.914056e+00 -1.999295e+01 0
4.319066e+01 -1.517588e-03 0
0.000000e+00 1.430090e-14 0
6.388782e-14 -1.517588e-03 0
3.028686e+01 8.363556e+00 0
2.355597e+01 3.922626e+01 0
1.164350e+01 6.730025e+01 0
0.000000e+00 -1.541386e-13 0
0.000000e+00 0.000000e+00 0
-3.642859e+00 7.725196e+01 0
-6.323213e+00 5.955279e+01 0
-6.969445e+00 3.492668e+01 0
-4.672126e+00 -6.873988e-01 0
4.205279e+00 -1.136848e+01 0
0.000000e+00 -2.424820e+01 0
-1.691912e+01 -7.092245e+01 0
-1.208835e+01 -9.527723e+01 0
-7.500897e+00 -9.087117e+01 0
-4.805446e+00 -8.203176e+01 0
-2.257838e+00 -6.670705e+01 0
1.324681e+01 -6.148126e+01 0
3.749926e+01 -3.453779e+01 0
-2.520804e+00 0.000000e+00 0
-2.520804e+00 -1.517588e-03 0
4.753193e+01 4.781836e+01 0
8.373782e+00 8.383117e+01 0
4.484683e+00 7.577234e+01 0
0.000000e+00 -1.591108e-13 0
0.000000e+00 0.000000e+00 0
-1.928351e+00 7.938159e+01 0
-2.987278e+00 6.024413e+01 0
-2.419071e+00 3.322874e+01 0
1.304500e+00 -2.238406e+00 0
-4.284446e-01 -1.136848e+01 0
0.000000e+00 -2.416800e+01 0
-1.322891e+01 -7.284694e+01 0
-9.166942e+00 -9.924502e+01 0
-6.055483e+00 -9.398950e+01 0
-3.635478e+00 -8.496044e+01 0
2.155519e-01 -7.715054e+01 0
1.334437e+01 -5.865131e+01 0
-9.726206e-03 1.188075e+01 0
2.786248e+01 3.491229e+01 0
2.494086e+01 -6.230200e-03 0
-9.680370e+00 0.000000e+00 0
-1.840460e+00 3.029479e+01 0
6.536404e-01 7.101323e+01 0
0.000000e+00 -1.789997e-13 0
0.000000e+00 0.000000e+00 0
-9.590223e-01 8.026187e+01 0
-1.039556e+00 6.004722e+01 0
-6.430138e-02 3.060239e+01 0
2.119924e+00 6.929301e+00 0
0.000000e+00 0.000000e+00 0
0.000000e+00 -1.050680e-03 0
-6.433655e+00 -4.908755e+01 0
-5.216421e+00 -1.008245e+02 0
-3.610313e+00 -9.644454e+01 0
-1.105357e+00 -8.835030e+01 0
2.734865e+00 -8.381553e+01 0
8.945227e+00 -5.985435e+01 0
5.897757e+00 -3.143048e+01 0
3.721013e+01 -6.104988e+00 0
3.989048e+01 5.625071e+00 0
-9.680370e+00 1.261450e+01 0
-2.726898e+00 4.165143e+01 0
-1.153827e+00 6.919949e+01 0
0.000000e+00 -1.690552e-13 0
0.000000e+00 0.000000e+00 0
-4.622772e-01 8.042902e+01 0
2.070564e-01 5.934263e+01 0
1.337575e+00 3.004532e+01 0
1.337575e+00 6.929301e+00 0
0.000000e+00 0.000000e+00 0
0.000000e+00 -1.050680e-03 0
-4.112098e+00 -4.832815e+01 0
-2.352703e+00 -1.005114e+02 0
-1.678252e+00 -9.813171e+01 0
6.196059e-01 -9.135368e+01 0
3.635244e+00 -8.727726e+01 0
5.819923e+00 -6.183816e+01 0
7.054482e+00 -3.481635e+01 0
1.195346e+01 -1.485065e+01 0
3.987939e+01 -1.517588e-03 0
-6.041243e+00 1.618407e+01 0
-4.217512e+00 4.474594e+01 0
-1.783475e+00 6.811774e+01 0
0.000000e+00 -1.640830e-13 0
0.000000e+00 0.000000e+00 0
-4.819263e-01 8.005324e+01 0
1.411280e+00 5.823374e+01 0
7.049406e+00 2.946331e+01 0
7.049406e+00 6.929301e+00 0
0.000000e+00 0.000000e+00 0
0.000000e+00 -1.050680e-03 0
-5.621871e+00 -4.867445e+01 0
-9.550784e-01 -1.010910e+02 0
-4.944588e-01 -9.943937e+01 0
1.410267e+00 -9.370405e+01 0
3.526048e+00 -8.905524e+01 0
3.777399e+00 -6.329949e+01 0
3.305561e+00 -3.761048e+01 0
-8.247214e+00 -3.917857e+01 0
2.745057e+01 -3.763590e+01 0
-6.041243e+00 5.020113e-02 0
-5.646877e+00 4.156955e+01 0
-2.374811e+00 6.476144e+01 0
0.000000e+00 -1.640830e-13 0
0.000000e+00 0.000000e+00 0
-1.834561e+00 7.900705e+01 0
-3.748841e+00 5.175424e+01 0
-9.977560e+00 2.436448e+01 0
-9.977560e+00 6.929301e+00 0
0.000000e+00 0.000000e+00 0
0.000000e+00 -1.050680e-03 0
-3.271332e+00 -5.046407e+01 0
-2.461244e-01 -1.031115e+02 0
4.090244e-01 -1.005150e+02 0
1.787431e+00 -9.540465e+01 0
3.266014e+00 -8.966233e+01 0
2.824978e+00 -4.212420e+01 0
-2.280213e+00 -1.517588e-03 0
-7.536326e+00 -1.517588e-03 0
5.837495e+00 2.917072e-14 0
0.000000e+00 2.137808e+01 0
-4.025440e+00 4.583482e+01 0
-2.341951e+00 6.161982e+01 0
0.000000e+00 -1.541386e-13 0
0.000000e+00 0.000000e+00 0
-2.487783e+00 8.383048e+01 0
-7.015417e+00 6.643843e+01 0
-2.810805e+01 3.573921e+01 0
-1.607637e+01 6.929301e+00 0
0.000000e+00 0.000000e+00 0
0.000000e+00 0.000000e+00 0
0.000000e+00 -5.000000e+01 0
0.000000e+00 -1.022520e+02 0
9.205111e-01 -1.006626e+02 0
1.920668e+00 -9.658269e+01 0
3.356355e+00 -9.010065e+01 0
5.763045e+00 -6.091856e+01 0
-6.774337e+00 -4.242996e+01 0
-7.306604e+00 -9.506476e+00 0
-1.940522e+00 1.393353e+01 0
8.233498e+00 2.599184e+01 0
1.444628e+00 4.889944e+01 0
-1.297478e+00 5.893130e+01 0
0.000000e+00 -1.541386e-13 0
0.000000e+00 0.000000e+00 0
-1.583348e+00 8.607562e+01 0
-3.153386e+00 7.756859e+01 0
-1.295681e+01 3.868760e+01 0
0.000000e+00 0.000000e+00 0
0.000000e+00 0.000000e+00 0
0.000000e+00 0.000000e+00 0
0.000000e+00 -5.000000e+01 0
0.000000e+00 -1.019245e+02 0
8.355447e-01 -1.007987e+02 0
1.503945e+00 -9.785895e+01 0
2.578936e+00 -9.353382e+01 0
7.459943e+00 -5.461588e+01 0
-1.544388e+00 -2.479125e+01 0
-3.479674e+01 2.061667e+00 0
-2.139931e+01 3.951190e+01 0
1.689548e+01 5.240459e+01 0
7.922425e+00 5.593254e+01 0
-2.568289e+00 6.210946e+01 0
0.000000e+00 -1.541386e-13 0
0.000000e+00 0.000000e+00 0
-1.867725e+00 8.700776e+01 0
-2.544638e+00 7.789805e+01 0
-1.059331e+01 3.868760e+01 0
0.000000e+00 0.000000e+00 0
0.000000e+00 0.000000e+00 0
0.000000e+00 0.000000e+00 0
0.000000e+00 -5.000000e+01 0
0.000000e+00 -1.015424e+02 0
4.429683e-01 -1.006265e+02 0
7.079549e-01 -9.833929e+01 0
1.117428e+00 -9.610177e+01 0
4.375043e+00 -5.676400e+01 0
-1.267217e-01 1.468453e-01 0
-2.876731e+01 1.875824e+01 0
-2.073597e+01 8.967629e+00 0
8.661978e+00 3.176531e+01 0
1.880112e+01 6.496946e+01 0
4.312646e+00 6.691374e+01 0
0.000000e+00 -1.392220e-13 0
0.000000e+00 0.000000e+00 0
1.715421e+00 8.863953e+01 0
7.450136e-01 8.636028e+01 0
-7.303659e+00 4.679725e+01 0
0.000000e+00 0.000000e+00 0
0.000000e+00 0.000000e+00 0
0.000000e+00 0.000000e+00 0
0.000000e+00 -5.000000e+01 0
0.000000e+00 -1.011081e+02 0
-3.768141e-02 -1.002493e+02 0
-6.068097e-02 -9.853851e+01 0
-1.086406e-01 -9.722868e+01 0
9.049215e-01 -5.336230e+01 0
-7.195871e+00 8.602178e+00 0
-1.123409e+01 2.282705e+01 0
-7.114673e+00 8.693979e+00 0
0.000000e+00 3.149166e+01 0
1.403296e+01 6.858354e+01 0
1.339487e+01 7.729296e+01 0
0.000000e+00 -1.690552e-13 0
0.000000e+00 0.000000e+00 0
6.534116e+00 8.625710e+01 0
-7.872239e+00 8.698546e+01 0
2.364517e+00 4.679725e+01 0
0.000000e+00 0.000000e+00 0
0.000000e+00 0.000000e+00 0
0.000000e+00 0.000000e+00 0
0.000000e+00 -5.000000e+01 0
0.000000e+00 -1.006514e+02 0
-4.247950e-01 -9.971231e+01 0
-6.304193e-01 -9.826779e+01 0
-1.238938e+00 -9.707469e+01 0
-1.558336e+00 -4.962308e+01 0
-1.375402e+01 1.237781e+01 0
-4.119412e+00 1.413307e+01 0
-2.887564e-14 0.000000e+00 0
-1.368888e+01 0.000000e+00 0
0.000000e+00 1.469619e+01 0
1.324848e+01 6.148031e+01 0
0.000000e+00 -1.889441e-13 0
0.000000e+00 1.133950e+00 0
3.549127e+00 9.657141e+01 0
-2.123878e+01 5.407853e+01 0
-4.939875e+01 0.000000e+00 0
0.000000e+00 0.000000e+00 0
0.000000e+00 0.000000e+00 0
0.000000e+00 0.000000e+00 0
0.000000e+00 -5.000000e+01 0
0.000000e+00 -1.002411e+02 0
-5.528943e-01 -9.917517e+01 0
-6.651675e-01 -9.771820e+01 0
-1.293615e+00 -9.629374e+01 0
-1.972561e+00 -4.075241e+01 0
-1.430669e+01 6.757190e+00 0
-1.561677e+01 0.000000e+00 0
-9.991556e+00 -3.460344e+00 0
-1.307445e+01 -3.460344e+00 0
3.273417e+01 1.469619e+01 0
8.441492e+00 6.801115e+01 0
0.000000e+00 -2.187774e-13 0
0.000000e+00 0.000000e+00 0
0.000000e+00 6.097682e+01 0
-1.506453e+01 9.966293e+01 0
-4.939875e+01 3.868611e+01 0
0.000000e+00 0.000000e+00 0
0.000000e+00 0.000000e+00 0
0.000000e+00 0.000000e+00 0
0.000000e+00 -5.000000e+01 0
0.000000e+00 -9.997255e+01 0
-4.016297e-01 -9.892035e+01 0
-1.193480e-01 -9.752146e+01 0
1.877711e-01 -9.575739e+01 0
1.219806e+00 -3.572529e+01 0
-3.182766e+00 2.293812e+01 0
-1.412746e+01 2.340899e+00 0
-9.991556e+00 -2.328545e+01 0
6.144274e-01 -3.181507e+01 0
3.273417e+01 -3.621370e+00 0
-2.708133e+00 6.924978e+01 0
0.000000e+00 -2.386662e-13 0
0.000000e+00 0.000000e+00 0
0.000000e+00 6.013606e+01 0
-1.664088e+01 6.013606e+01 0
0.000000e+00 0.000000e+00 0
0.000000e+00 0.000000e+00 0
0.000000e+00 0.000000e+00 0
0.000000e+00 0.000000e+00 0
0.000000e+00 -5.000000e+01 0
0.000000e+00 -9.988661e+01 0
-1.707035e-01 -9.910510e+01 0
4.002362e-01 -9.831207e+01 0
1.412147e+00 -9.764304e+01 0
3.622160e+00 -3.657020e+01 0
3.725864e+00 2.345892e+01 0
3.725864e+00 1.147967e+01 0
0.000000e+00 0.000000e+00 0
0.000000e+00 0.000000e+00 0
-5.506405e-01 1.404702e+01 0
-6.884976e+00 6.602229e+01 0
0.000000e+00 -2.187774e-13 0
0.000000e+00 -4.554573e+01 0
-2.244896e+00 6.947715e+01 0
-1.808375e+01 6.947715e+01 0
0.000000e+00 0.000000e+00 0
0.000000e+00 0.000000e+00 0
0.000000e+00 0.000000e+00 0
0.000000e+00 0.000000e+00 0
0.000000e+00 -5.000000e+01 0
0.000000e+00 -9.990112e+01 0
-4.101203e-02 -9.942419e+01 0
4.644994e-01 -9.911630e+01 0
1.162389e+00 -9.900372e+01 0
1.977705e+00 -3.805653e+01 0
4.544786e+00 2.283362e+01 0
4.544786e+00 1.147967e+01 0
2.308232e+00 0.000000e+00 0
0.000000e+00 1.777179e+01 0
1.131603e+00 3.470371e+01 0
-3.876478e+00 6.658651e+01 0
0.000000e+00 -2.088330e-13 0
0.000000e+00 0.000000e+00 0
-2.862920e+00 1.197303e+02 0
-1.141520e+01 7.276233e+01 0
0.000000e+00 0.000000e+00 0
0.000000e+00 0.000000e+00 0
0.000000e+00 0.000000e+00 0
0.000000e+00 0.000000e+00 0
0.000000e+00 -5.000000e+01 0
0.000000e+00 -9.993694e+01 0
1.615971e-04 -9.966477e+01 0
3.313267e-01 -9.952459e+01 0
6.438762e-01 -9.916771e+01 0
6.495233e-01 -3.789128e+01 0
2.308232e+00 2.295934e+01 0
2.308232e+00 1.147786e+01 0
2.909809e+00 -1.811914e-03 0
-6.108699e+00 1.404415e+01 0
-6.217771e-01 3.440196e+01 0
-4.019357e+00 6.842723e+01 0
0.000000e+00 -1.988885e-13 0
0.000000e+00 0.000000e+00 0
-9.155822e-01 1.256849e+02 0
-1.475113e+01 7.809423e+01 0
0.000000e+00 0.000000e+00 0
0.000000e+00 0.000000e+00 0
0.000000e+00 0.000000e+00 0
0.000000e+00 0.000000e+00 0
0.000000e+00 -5.000000e+01 0
0.000000e+00 -9.996895e+01 0
9.387447e-03 -9.982569e+01 0
2.153412e-01 -9.976489e+01 0
3.924806e-01 -9.932433e+01 0
5.444107e-01 -4.941618e+01 0
0.000000e+00 0.000000e+00 0
0.000000e+00 -1.811914e-03 0
2.416176e-01 2.252024e+01 0
-6.950314e+00 3.190168e+01 0
-4.467896e+00 2.988061e+01 0
-4.807905e+00 6.610576e+01 0
0.000000e+00 -1.889441e-13 0
0.000000e+00 0.000000e+00 0
-1.114930e+00 1.345932e+02 0
-4.277521e+00 8.670270e+01 0
0.000000e+00 0.000000e+00 0
0.000000e+00 0.000000e+00 0
0.000000e+00 0.000000e+00 0
0.000000e+00 0.000000e+00 0
0.000000e+00 -5.000000e+01 0
0.000000e+00 -9.999175e+01 0
7.285879e-03 -9.992709e+01 0
1.280964e-01 -9.991058e+01 0
2.235788e-01 -9.949927e+01 0
8.030097e-01 -4.952403e+01 0
0.000000e+00 0.000000e+00 0
0.000000e+00 -1.811914e-03 0
-3.599601e-01 2.267744e+01 0
-8.416153e-01 3.339116e+01 0
-2.417193e+00 3.141230e+01 0
-4.591379e+00 6.392549e+01 0
0.000000e+00 -1.839719e-13 0
0.000000e+00 0.000000e+00 0
-1.687988e+00 1.299948e+02 0
2.260313e+00 8.128078e+01 0
0.000000e+00 0.000000e+00 0
0.000000e+00 0.000000e+00 0
0.000000e+00 0.000000e+00 0
0.000000e+00 0.000000e+00 0
0.000000e+00 -5.000000e+01 0
0.000000e+00 -1.000050e+02 0
1.960619e-03 -9.998351e+01 0
6.625785e-02 -9.998282e+01 0
1.058428e-01 -1.000044e+02 0
5.782390e-01 -5.000000e+01 0
0.000000e+00 0.000000e+00 0
0.000000e+00 0.000000e+00 0
-5.391414e-14 2.242856e+01 0
-2.555871e+01 3.307117e+01 0
-8.775536e+00 3.333424e+01 0
-9.796359e+00 6.367025e+01 0
0.000000e+00 -1.789997e-13 0
0.000000e+00 0.000000e+00 0
-3.164504e+00 1.323157e+02 0
-1.320307e+00 8.272449e+01 0
0.000000e+00 0.000000e+00 0
0.000000e+00 0.000000e+00 0
0.000000e+00 0.000000e+00 0
0.000000e+00 0.000000e+00 0
0.000000e+00 -5.000000e+01 0
0.000000e+00 -1.000113e+02 0
-2.134836e-03 -1.000114e+02 0
2.933210e-02 -1.000153e+02 0
4.431155e-02 -1.000151e+02 0
4.431155e-02 -5.000000e+01 0
0.000000e+00 0.000000e+00 0
0.000000e+00 0.000000e+00 0
-1.358476e-13 -4.570464e-01 0
-6.440034e+01 1.766734e+01 0
-4.736386e+01 3.985333e+01 0
-4.640841e+01 5.508347e+01 0
0.000000e+00 -1.392220e-13 0
0.000000e+00 -2.463510e-02 0
-1.428320e+00 1.195501e+02 0
9.831651e-01 6.764758e+01 0
0.000000e+00 1.619899e-13 0
0.000000e+00 0.000000e+00 0
0.000000e+00 0.000000e+00 0
0.000000e+00 0.000000e+00 0
0.000000e+00 -5.000000e+01 0
0.000000e+00 -1.000132e+02 0
-4.297367e-03 -1.000233e+02 0
9.099375e-03 -1.000296e+02 0
1.338043e-02 -1.000194e+02 0
1.338043e-02 -5.000000e+01 0
0.000000e+00 0.000000e+00 0
0.000000e+00 0.000000e+00 0
-8.193348e-14 -4.570464e-01 0
-3.884164e+01 1.766734e+01 0
-3.884164e+01 3.985333e+01 0
-3.884164e+01 2.172895e+01 0
0.000000e+00 0.000000e+00 0
0.000000e+00 6.851970e+01 0
8.655691e-01 1.370394e+02 0
0.000000e+00 1.072073e+02 0
0.000000e+00 3.868760e+01 0
0.000000e+00 0.000000e+00 0
0.000000e+00 0.000000e+00 0
0.000000e+00 0.000000e+00 0
0.000000e+00 -5.000000e+01 0
0.000000e+00 -1.000126e+02 0
-5.132696e-03 -1.000262e+02 0
-1.907716e-03 -1.000331e+02 0
-4.116231e-03 -1.000194e+02 0
-4.116231e-03 -5.000000e+01 0
0.000000e+00 0.000000e+00 0
0.000000e+00 0.000000e+00 0
0.000000e+00 0.000000e+00 0
0.000000e+00 0.000000e+00 0
0.000000e+00 0.000000e+00 0
0.000000e+00 0.000000e+00 0
0.000000e+00 0.000000e+00 0
0.000000e+00 0.000000e+00 0
0.000000e+00 6.851970e+01 0
0.000000e+00 1.072073e+02 0
0.000000e+00 3.868760e+01 0
0.000000e+00 0.000000e+00 0
0.000000e+00 0.000000e+00 0
0.000000e+00 0.000000e+00 0
0.000000e+00 -5.000000e+01 0
0.000000e+00 -1.000107e+02 0
-5.056217e-03 -1.000242e+02 0
-7.386981e-03 -1.000306e+02 0
-1.296733e-02 -1.000172e+02 0
-1.296733e-02 -5.000000e+01 0
0.000000e+00 0.000000e+00 0
0.000000e+00 0.000000e+00 0
0.000000e+00 0.000000e+00 0
0.000000e+00 0.000000e+00 0
0.000000e+00 0.000000e+00 0
0.000000e+00 0.000000e+00 0
0.000000e+00 0.000000e+00 0
0.000000e+00 0.000000e+00 0
0.000000e+00 0.000000e+00 0
0.000000e+00 3.868760e+01 0
0.000000e+00 3.868760e+01 0
0.000000e+00 0.000000e+00 0
0.000000e+00 0.000000e+00 0
0.000000e+00 0.000000e+00 0
0.000000e+00 -5.000000e+01 0
0.000000e+00 -1.000083e+02 0
-4.307225e-03 -1.000196e+02 0
-9.506452e-03 -1.000251e+02 0
-1.680734e-02 -1.000138e+02 0
-1.680734e-02 -5.000000e+01 0
0.000000e+00 0.000000e+00 0
0.000000e+00 0.000000e+00 0
0.000000e+00 0.000000e+00 0
0.000000e+00 0.000000e+00 0
0.000000e+00 0.000000e+00 0
0.000000e+00 0.000000e+00 0
0.000000e+00 0.000000e+00 0
0.000000e+00 0.000000e+00 0
0.000000e+00 0.000000e+00 0
0.000000e+00 0.000000e+00 0
0.000000e+00 0.000000e+00 0
0.000000e+00 0.000000e+00 0
0.000000e+00 0.000000e+00 0
0.000000e+00 0.000000e+00 0
0.000000e+00 -5.000000e+01 0
0.000000e+00 -1.000058e+02 0
-2.988304e-03 -1.000140e+02 0
-9.391329e-03 -1.000180e+02 0
-1.734610e-02 -1.000099e+02 0
-1.734610e-02 -5.000000e+01 0
0.000000e+00 0.000000e+00 0
0.000000e+00 0.000000e+00 0
0.000000e+00 0.000000e+00 0
0.000000e+00 0.000000e+00 0
0.000000e+00 0.000000e+00 0
0.000000e+00 0.000000e+00 0
0.000000e+00 0.000000e+00 0
0.000000e+00 0.000000e+00 0
0.000000e+00 0.000000e+00 0
0.000000e+00 0.000000e+00 0
0.000000e+00 0.000000e+00 0
0.000000e+00 0.000000e+00 0
0.000000e+00 0.000000e+00 0
0.000000e+00 0.000000e+00 0
0.000000e+00 -5.000000e+01 0
0.000000e+00 -1.000035e+02 0
-1.223011e-03 -1.000083e+02 0
-7.578206e-03 -1.000106e+02 0
-1.522468e-02 -1.000058e+02 0
-1.522468e-02 -5.000000e+01 0
0.000000e+00 0.000000e+00 0
0.000000e+00 0.000000e+00 0
0.000000e+00 0.000000e+00 0
0.000000e+00 0.000000e+00 0
0.000000e+00 0.000000e+00 0
0.000000e+00 0.000000e+00 0
0.000000e+00 0.000000e+00 0
0.000000e+00 0.000000e+00 0
0.000000e+00 0.000000e+00 0
0.000000e+00 0.000000e+00 0
0.000000e+00 0.000000e+00 0
0.000000e+00 0.000000e+00 0
0.000000e+00 0.000000e+00 0
0.000000e+00 0.000000e+00 0
0.000000e+00 -5.000000e+01 0
0.000000e+00 -1.000016e+02 0
4.505944e-04 -1.000034e+02 0
-4.334978e-03 -1.000039e+02 0
-1.009560e-02 -1.000022e+02 0
-1.009560e-02 -5.000000e+01 0
0.000000e+00 0.000000e+00 0
0.000000e+00 0.000000e+00 0
0.000000e+00 0.000000e+00 0
0.000000e+00 0.000000e+00 0
0.000000e+00 0.000000e+00 0
0.000000e+00 0.000000e+00 0
0.000000e+00 0.000000e+00 0
0.000000e+00 0.000000e+00 0
0.000000e+00 0.000000e+00 0
0.000000e+00 0.000000e+00 0
0.000000e+00 0.000000e+00 0
0.000000e+00 0.000000e+00 0
0.000000e+00 0.000000e+00 0
0.000000e+00 0.000000e+00 0
0.000000e+00 -5.000000e+01 0
0.000000e+00 -1.000000e+02 0
4.855677e-18 -1.000000e+02 0
-1.001483e-17 -1.000000e+02 0
-2.816888e-17 -1.000000e+02 0
-2.792014e-17 -5.000000e+01 0
0.000000e+00 0.000000e+00 0
0.000000e+00 0.000000e+00 0
0.000000e+00 0.000000e+00 0
0.000000e+00 0.000000e+00 0
0.000000e+00 0.000000e+00 0
0.000000e+00 0.000000e+00 0
0.000000e+00 0.000000e+00 0
</DataArray>
<DataArray Name="Type and Neighbourhood" type="Float64" format="ascii" NumberOfComponents="3">
0.000000e+00 0.000000e+00 0
0.000000e+00 0.000000e+00 0
0.000000e+00 0.000000e+00 0
0.000000e+00 0.000000e+00 0
0.000000e+00 0.000000e+00 0
0.000000e+00 0.000000e+00 0
0.000000e+00 0.000000e+00 0
0.000000e+00 0.000000e+00 0
0.000000e+00 0.000000e+00 0