<?xml version="1.0"?>
<VTKFile type="StructuredGrid">
<StructuredGrid WholeExtent="0 19 0 33 0 0 ">
<Piece Extent="0 19 0 33 0 0 ">
<Points>
<DataArray type="Float64" format="ascii" NumberOfComponents="3">
0.000000e+00 0.000000e+00 0.000000e+00
1.052632e-01 0.000000e+00 0.000000e+00
2.105263e-01 0.000000e+00 0.000000e+00
3.157895e-01 0.000000e+00 0.000000e+00
4.210526e-01 0.000000e+00 0.000000e+00
5.263158e-01 0.000000e+00 0.000000e+00
6.315789e-01 0.000000e+00 0.000000e+00
7.368421e-01 0.000000e+00 0.000000e+00
8.421053e-01 0.000000e+00 0.000000e+00
9.473684e-01 0.000000e+00 0.000000e+00
1.052632e+00 0.000000e+00 0.000000e+00
1.157895e+00 0.000000e+00 0.000000e+00
1.263158e+00 0.000000e+00 0.000000e+00
1.368421e+00 0.000000e+00 0.000000e+00
1.473684e+00 0.000000e+00 0.000000e+00
1.578947e+00 0.000000e+00 0.000000e+00
1.684211e+00 0.000000e+00 0.000000e+00
1.789474e+00 0.000000e+00 0.000000e+00
1.894737e+00 0.000000e+00 0.000000e+00
2.000000e+00 0.000000e+00 0.000000e+00
0.000000e+00 1.060606e-01 0.000000e+00
1.052632e-01 1.060606e-01 0.000000e+00
2.105263e-01 1.060606e-01 0.000000e+00
3.157895e-01 1.060606e-01 0.000000e+00
4.210526e-01 1.060606e-01 0.000000e+00
5.263158e-01 1.060606e-01 0.000000e+00
6.315789e-01 1.060606e-01 0.000000e+00
7.368421e-01 1.060606e-01 0.000000e+00
8.421053e-01 1.060606e-01 0.000000e+00
9.473684e-01 1.060606e-01 0.000000e+00
1.052632e+00 1.060606e-01 0.000000e+00
1.157895e+00 1.060606e-01 0.000000e+00
1.263158e+00 1.060606e-01 0.000000e+00
1.368421e+00 1.060606e-01 0.000000e+00
1.473684e+00 1.060606e-01 0.000000e+00
1.578947e+00 1.060606e-01 0.000000e+00
1.684211e+00 1.060606e-01 0.000000e+00
1.789474e+00 1.060606e-01 0.000000e+00
1.894737e+00 1.060606e-01 0.000000e+00
2.000000e+00 1.060606e-01 0.000000e+00
0.000000e+00 2.121212e-01 0.000000e+00
1.052632e-01 2.121212e-01 0.000000e+00
2.105263e-01 2.121212e-01 0.000000e+00
3.157895e-01 2.121212e-01 0.000000e+00
4.210526e-01 2.121212e-01 0.000000e+00
5.263158e-01 2.121212e-01 0.000000e+00
6.315789e-01 2.121212e-01 0.000000e+00
7.368421e-01 2.121212e-01 0.000000e+00
8.421053e-01 2.121212e-01 0.000000e+00
9.473684e-01 2.121212e-01 0.000000e+00
1.052632e+00 2.121212e-01 0.000000e+00
1.157895e+00 2.121212e-01 0.000000e+00
1.263158e+00 2.121212e-01 0.000000e+00
1.368421e+00 2.121212e-01 0.000000e+00
1.473684e+00 2.121212e-01 0.000000e+00
1.578947e+00 2.121212e-01 0.000000e+00
1.684211e+00 2.121212e-01 0.000000e+00
1.789474e+00 2.121212e-01 0.000000e+00
1.894737e+00 2.121212e-01 0.000000e+00
2.000000e+00 2.121212e-01 0.000000e+00
0.000000e+00 3.181818e-01 0.000000e+00
1.052632e-01 3.181818e-01 0.000000e+00
2.105263e-01 3.181818e-01 0.000000e+00
3.157895e-01 3.181818e-01 0.000000e+00
4.210526e-01 3.181818e-01 0.000000e+00
5.263158e-01 3.181818e-01 0.000000e+00
6.315789e-01 3.181818e-01 0.000000e+00
7.368421e-01 3.181818e-01 0.000000e+00
8.421053e-01 3.181818e-01 0.000000e+00
9.473684e-01 3.181818e-01 0.000000e+00
1.052632e+00 3.181818e-01 0.000000e+00
1.157895e+00 3.181818e-01 0.000000e+00
1.263158e+00 3.181818e-01 0.000000e+00
1.368421e+00 3.181818e-01 0.000000e+00
1.473684e+00 3.181818e-01 0.000000e+00
1.578947e+00 3.181818e-01 0.000000e+00
1.684211e+00 3.181818e-01 0.000000e+00
1.789474e+00 3.181818e-01 0.000000e+00
1.894737e+00 3.181818e-01 0.000000e+00
2.000000e+00 3.181818e-01 0.000000e+00
0.000000e+00 4.242424e-01 0.000000e+00
1.052632e-01 4.242424e-01 0.000000e+00
2.105263e-01 4.242424e-01 0.000000e+00
3.157895e-01 4.242424e-01 0.000000e+00
4.210526e-01 4.242424e-01 0.000000e+00
5.263158e-01 4.242424e-01 0.000000e+00
6.315789e-01 4.242424e-01 0.000000e+00
7.368421e-01 4.242424e-01 0.000000e+00
8.421053e-01 4.242424e-01 0.000000e+00
9.473684e-01 4.242424e-01 0.000000e+00
1.052632e+00 4.242424e-01 0.000000e+00
1.157895e+00 4.242424e-01 0.000000e+00
1.263158e+00 4.242424e-01 0.000000e+00
1.368421e+00 4.242424e-01 0.000000e+00
1.473684e+00 4.242424e-01 0.000000e+00
1.578947e+00 4.242424e-01 0.000000e+00
1.684211e+00 4.242424e-01 0.000000e+00
1.789474e+00 4.242424e-01 0.000000e+00
1.894737e+00 4.242424e-01 0.000000e+00
2.000000e+00 4.242424e-01 0.000000e+00
0.000000e+00 5.303030e-01 0.000000e+00
1.052632e-01 5.303030e-01 0.000000e+00
2.105263e-01 5.303030e-01 0.000000e+00
3.157895e-01 5.303030e-01 0.000000e+00
4.210526e-01 5.303030e-01 0.000000e+00
5.263158e-01 5.303030e-01 0.000000e+00
6.315789e-01 5.303030e-01 0.000000e+00
7.368421e-01 5.303030e-01 0.000000e+00
8.421053e-01 5.303030e-01 0.000000e+00
9.473684e-01 5.303030e-01 0.000000e+00
1.052632e+00 5.303030e-01 0.000000e+00
1.157895e+00 5.303030e-01 0.000000e+00
1.263158e+00 5.303030e-01 0.000000e+00
1.368421e+00 5.303030e-01 0.000000e+00
1.473684e+00 5.303030e-01 0.000000e+00
1.578947e+00 5.303030e-01 0.000000e+00
1.684211e+00 5.303030e-01 0.000000e+00
1.789474e+00 5.303030e-01 0.000000e+00
1.894737e+00 5.303030e-01 0.000000e+00
2.000000e+00 5.303030e-01 0.000000e+00
0.000000e+00 6.363636e-01 0.000000e+00
1.052632e-01 6.363636e-01 0.000000e+00
2.105263e-01 6.363636e-01 0.000000e+00
3.157895e-01 6.363636e-01 0.000000e+00
4.210526e-01 6.363636e-01 0.000000e+00
5.263158e-01 6.363636e-01 0.000000e+00
6.315789e-01 6.363636e-01 0.000000e+00
7.368421e-01 6.363636e-01 0.000000e+00
8.421053e-01 6.363636e-01 0.000000e+00
9.473684e-01 6.363636e-01 0.000000e+00
1.052632e+00 6.363636e-01 0.000000e+00
1.157895e+00 6.363636e-01 0.000000e+00
1.263158e+00 6.363636e-01 0.000000e+00
1.368421e+00 6.363636e-01 0.000000e+00
1.473684e+00 6.363636e-01 0.000000e+00
1.578947e+00 6.363636e-01 0.000000e+00
1.684211e+00 6.363636e-01 0.000000e+00
1.789474e+00 6.363636e-01 0.000000e+00
1.894737e+00 6.363636e-01 0.000000e+00
2.000000e+00 6.363636e-01 0.000000e+00
0.000000e+00 7.424242e-01 0.000000e+00
1.052632e-01 7.424242e-01 0.000000e+00
2.105263e-01 7.424242e-01 0.000000e+00
3.157895e-01 7.424242e-01 0.000000e+00
4.210526e-01 7.424242e-01 0.000000e+00
5.263158e-01 7.424242e-01 0.000000e+00
6.315789e-01 7.424242e-01 0.000000e+00
7.368421e-01 7.424242e-01 0.000000e+00
8.421053e-01 7.424242e-01 0.000000e+00
9.473684e-01 7.424242e-01 0.000000e+00
1.052632e+00 7.424242e-01 0.000000e+00
1.157895e+00 7.424242e-01 0.000000e+00
1.263158e+00 7.424242e-01 0.000000e+00
1.368421e+00 7.424242e-01 0.000000e+00
1.473684e+00 7.424242e-01 0.000000e+00
1.578947e+00 7.424242e-01 0.000000e+00
1.684211e+00 7.424242e-01 0.000000e+00
1.789474e+00 7.424242e-01 0.000000e+00
1.894737e+00 7.424242e-01 0.000000e+00
2.000000e+00 7.424242e-01 0.000000e+00
0.000000e+00 8.484848e-01 0.000000e+00
1.052632e-01 8.484848e-01 0.000000e+00
2.105263e-01 8.484848e-01 0.000000e+00
3.157895e-01 8.484848e-01 0.000000e+00
4.210526e-01 8.484848e-01 0.000000e+00
5.263158e-01 8.484848e-01 0.000000e+00
6.315789e-01 8.484848e-01 0.000000e+00
7.368421e-01 8.484848e-01 0.000000e+00
8.421053e-01 8.484848e-01 0.000000e+00
9.473684e-01 8.484848e-01 0.000000e+00
1.052632e+00 8.484848e-01 0.000000e+00
1.157895e+00 8.484848e-01 0.000000e+00
1.263158e+00 8.484848e-01 0.000000e+00
1.368421e+00 8.484848e-01 0.000000e+00
1.473684e+00 8.484848e-01 0.000000e+00
1.578947e+00 8.484848e-01 0.000000e+00
1.684211e+00 8.484848e-01 0.000000e+00
1.789474e+00 8.484848e-01 0.000000e+00
1.894737e+00 8.484848e-01 0.000000e+00
2.000000e+00 8.484848e-01 0.000000e+00
0.000000e+00 9.545455e-01 0.000000e+00
1.052632e-01 9.545455e-01 0.000000e+00
2.105263e-01 9.545455e-01 0.000000e+00
3.157895e-01 9.545455e-01 0.000000e+00
4.210526e-01 9.545455e-01 0.000000e+00
5.263158e-01 9.545455e-01 0.000000e+00
6.315789e-01 9.545455e-01 0.000000e+00
7.368421e-01 9.545455e-01 0.000000e+00
8.421053e-01 9.545455e-01 0.000000e+00
9.473684e-01 9.545455e-01 0.000000e+00
1.052632e+00 9.545455e-01 0.000000e+00
1.157895e+00 9.545455e-01 0.000000e+00
1.263158e+00 9.545455e-01 0.000000e+00
1.368421e+00 9.545455e-01 0.000000e+00
1.473684e+00 9.545455e-01 0.000000e+00
1.578947e+00 9.545455e-01 0.000000e+00
1.684211e+00 9.545455e-01 0.000000e+00
1.789474e+00 9.545455e-01 0.000000e+00
1.894737e+00 9.545455e-01 0.000000e+00
2.000000e+00 9.545455e-01 0.000000e+00
0.000000e+00 1.060606e+00 0.000000e+00
1.052632e-01 1.060606e+00 0.000000e+00
2.105263e-01 1.060606e+00 0.000000e+00
3.157895e-01 1.060606e+00 0.000000e+00
4.210526e-01 1.060606e+00 0.000000e+00
5.263158e-01 1.060606e+00 0.000000e+00
6.315789e-01 1.060606e+00 0.000000e+00
7.368421e-01 1.060606e+00 0.000000e+00
8.421053e-01 1.060606e+00 0.000000e+00
9.473684e-01 1.060606e+00 0.000000e+00
1.052632e+00 1.060606e+00 0.000000e+00
1.157895e+00 1.060606e+00 0.000000e+00
1.263158e+00 1.060606e+00 0.000000e+00
1.368421e+00 1.060606e+00 0.000000e+00
1.473684e+00 1.060606e+00 0.000000e+00
1.578947e+00 1.060606e+00 0.000000e+00
1.684211e+00 1.060606e+00 0.000000e+00
1.789474e+00 1.060606e+00 0.000000e+00
1.894737e+00 1.060606e+00 0.000000e+00
2.000000e+00 1.060606e+00 0.000000e+00
0.000000e+00 1.166667e+00 0.000000e+00
1.052632e-01 1.166667e+00 0.000000e+00
2.105263e-01 1.166667e+00 0.000000e+00
3.157895e-01 1.166667e+00 0.000000e+00
4.210526e-01 1.166667e+00 0.000000e+00
5.263158e-01 1.166667e+00 0.000000e+00
6.315789e-01 1.166667e+00 0.000000e+00
7.368421e-01 1.166667e+00 0.000000e+00
8.421053e-01 1.166667e+00 0.000000e+00
9.473684e-01 1.166667e+00 0.000000e+00
1.052632e+00 1.166667e+00 0.000000e+00
1.157895e+00 1.166667e+00 0.000000e+00
1.263158e+00 1.166667e+00 0.000000e+00
1.368421e+00 1.166667e+00 0.000000e+00
1.473684e+00 1.166667e+00 0.000000e+00
1.578947e+00 1.166667e+00 0.000000e+00
1.684211e+00 1.166667e+00 0.000000e+00
1.789474e+00 1.166667e+00 0.000000e+00
1.894737e+00 1.166667e+00 0.000000e+00
2.000000e+00 1.166667e+00 0.000000e+00
0.000000e+00 1.272727e+00 0.000000e+00
1.052632e-01 1.272727e+00 0.000000e+00
2.105263e-01 1.272727e+00 0.000000e+00
3.157895e-01 1.272727e+00 0.000000e+00
4.210526e-01 1.272727e+00 0.000000e+00
5.263158e-01 1.272727e+00 0.000000e+00
6.315789e-01 1.272727e+00 0.000000e+00
7.368421e-01 1.272727e+00 0.000000e+00
8.421053e-01 1.272727e+00 0.000000e+00
9.473684e-01 1.272727e+00 0.000000e+00
1.052632e+00 1.272727e+00 0.000000e+00
[...]
<PointData>
<DataArray Name="Velocity" type="Float64" format="ascii" NumberOfComponents="3">
0.000000e+00 0.000000e+00 0
0.000000e+00 0.000000e+00 0
0.000000e+00 0.000000e+00 0
0.000000e+00 0.000000e+00 0
0.000000e+00 0.000000e+00 0
0.000000e+00 0.000000e+00 0
0.000000e+00 0.000000e+00 0
0.000000e+00 0.000000e+00 0
0.000000e+00 0.000000e+00 0
0.000000e+00 0.000000e+00 0
0.000000e+00 0.000000e+00 0
-4.422620e-16 0.000000e+00 0
0.000000e+00 0.000000e+00 0
0.000000e+00 0.000000e+00 0
0.000000e+00 0.000000e+00 0
1.635609e-15 0.000000e+00 0
0.000000e+00 0.000000e+00 0
0.000000e+00 0.000000e+00 0
0.000000e+00 0.000000e+00 0
0.000000e+00 0.000000e+00 0
0.000000e+00 0.000000e+00 0
-1.790086e+01 1.889898e+01 0
-3.835036e+01 1.362609e+01 0
-5.273820e+01 1.303921e+01 0
-5.982099e+01 5.810647e+00 0
-5.990753e+01 -4.063766e+00 0
-5.146570e+01 -1.370634e+01 0
-3.357395e+01 -2.450387e+01 0
-6.769988e+00 -3.410108e+01 0
2.314540e+01 -2.738692e+01 0
4.223939e+01 -1.245658e+01 0
5.442582e+01 -4.272387e+00 0
5.549322e+01 1.586199e+00 0
5.169379e+01 3.591864e+00 0
4.749214e+01 3.960835e+00 0
4.343901e+01 4.915631e+00 0
3.826213e+01 7.020805e+00 0
3.001598e+01 1.091466e+01 0
1.742300e+01 1.561808e+01 0
0.000000e+00 -3.604855e-14 0
0.000000e+00 0.000000e+00 0
-1.541389e+01 3.864090e+01 0
-3.622787e+01 3.510127e+01 0
-4.732523e+01 2.163329e+01 0
-5.163587e+01 7.223641e+00 0
-5.136214e+01 -8.418596e+00 0
-4.354787e+01 -2.653307e+01 0
-2.856579e+01 -4.503431e+01 0
-7.754199e+00 -5.714905e+01 0
1.096382e+01 -4.938066e+01 0
3.364600e+01 -3.151739e+01 0
5.190696e+01 -1.335423e+01 0
5.360286e+01 2.752720e+00 0
5.035478e+01 8.061690e+00 0
4.853799e+01 8.317323e+00 0
4.418255e+01 9.299939e+00 0
3.633137e+01 1.352471e+01 0
2.760154e+01 2.099700e+01 0
1.625711e+01 3.024338e+01 0
0.000000e+00 -7.209709e-14 0
0.000000e+00 0.000000e+00 0
-1.788892e+01 5.540131e+01 0
-2.864142e+01 4.577918e+01 0
-3.649427e+01 2.856393e+01 0
-4.134125e+01 9.878139e+00 0
-4.069318e+01 -1.221303e+01 0
-3.509554e+01 -3.667539e+01 0
-2.460258e+01 -6.056871e+01 0
-9.276484e+00 -7.393015e+01 0
4.933461e+00 -6.910076e+01 0
2.562541e+01 -5.370990e+01 0
4.368208e+01 -2.438043e+01 0
4.441264e+01 3.150139e+00 0
2.506071e+01 8.695104e+00 0
2.555704e+01 1.017982e+01 0
2.321221e+01 1.622588e+01 0
4.107028e+01 2.273858e+01 0
2.942084e+01 3.114100e+01 0
1.595339e+01 4.342872e+01 0
0.000000e+00 -1.044165e-13 0
0.000000e+00 0.000000e+00 0
-1.286868e+01 6.749929e+01 0
-2.004841e+01 5.384756e+01 0
-2.591873e+01 3.442933e+01 0
-2.811269e+01 1.145436e+01 0
-2.563776e+01 -1.471162e+01 0
-2.552099e+01 -4.274557e+01 0
-2.098622e+01 -7.104897e+01 0
-1.038428e+01 -8.690885e+01 0
9.040887e-01 -8.454696e+01 0
1.476280e+01 -7.055956e+01 0
2.803104e+01 -3.228379e+01 0
1.822695e+01 -1.811579e+00 0
0.000000e+00 0.000000e+00 0
0.000000e+00 0.000000e+00 0
4.929409e-14 9.779443e+00 0
2.336851e+01 2.919519e+01 0
2.914154e+01 4.567360e+01 0
1.524390e+01 5.988710e+01 0
0.000000e+00 -1.441942e-13 0
0.000000e+00 0.000000e+00 0
-8.051370e+00 7.560160e+01 0
-1.285161e+01 5.892809e+01 0
-1.536463e+01 3.668930e+01 0
-1.428519e+01 9.595041e+00 0
-3.014224e+00 -1.482436e+01 0
-1.450783e+01 -4.136216e+01 0
-1.806567e+01 -7.582010e+01 0
-1.140452e+01 -9.598630e+01 0
-3.134025e+00 -9.443835e+01 0
4.609567e+00 -8.104235e+01 0
1.546725e+01 -3.593761e+01 0
0.000000e+00 -9.481641e-16 0
0.000000e+00 0.000000e+00 0
0.000000e+00 0.000000e+00 0
1.187198e-02 5.118471e-15 0
0.000000e+00 2.593195e+01 0
1.427270e+01 5.847423e+01 0
1.012778e+01 7.314853e+01 0
0.000000e+00 -1.690552e-13 0
0.000000e+00 0.000000e+00 0
-4.793623e+00 8.044826e+01 0
-7.689804e+00 6.121623e+01 0
-7.968560e+00 3.587378e+01 0
-3.876933e+00 -9.896118e-01 0
5.345739e+00 -1.448729e+01 0
-4.335352e+00 -2.864291e+01 0
-1.701340e+01 -7.523860e+01 0
-1.201072e+01 -1.019536e+02 0
-6.375968e+00 -1.006824e+02 0
-2.548258e+00 -8.930175e+01 0
5.352781e+00 -4.141215e+01 0
-2.354332e-02 0.000000e+00 0
0.000000e+00 0.000000e+00 0
0.000000e+00 -2.157896e-03 0
1.187198e-02 -2.157896e-03 0
0.000000e+00 3.015724e+01 0
-1.256156e+00 6.342063e+01 0
3.819375e+00 7.709713e+01 0
0.000000e+00 -1.839719e-13 0
0.000000e+00 0.000000e+00 0
-2.817919e+00 8.334966e+01 0
-4.695456e+00 6.212708e+01 0
-4.841583e+00 3.284754e+01 0
-8.684599e-01 -3.820124e+00 0
1.238901e-01 -1.192214e+01 0
0.000000e+00 -2.416800e+01 0
-1.322891e+01 -7.547845e+01 0
-1.081238e+01 -1.063215e+02 0
-7.865748e+00 -1.039725e+02 0
-6.553371e+00 -9.490073e+01 0
-3.967915e+00 -7.343654e+01 0
-3.681077e+00 -2.750738e+01 0
0.000000e+00 -2.141883e+01 0
-2.438105e+01 -2.140872e+01 0
-2.553931e-14 0.000000e+00 0
-1.210724e+01 1.866338e+01 0
-5.143203e+00 5.088307e+01 0
-2.473979e-01 7.667424e+01 0
0.000000e+00 -1.889441e-13 0
0.000000e+00 0.000000e+00 0
-1.551904e+00 8.517929e+01 0
-2.777895e+00 6.325523e+01 0
-4.071369e+00 3.201779e+01 0
-2.907476e+00 6.929301e+00 0
0.000000e+00 0.000000e+00 0
0.000000e+00 -1.050680e-03 0
-6.433655e+00 -5.100987e+01 0
-8.128150e+00 -1.067705e+02 0
-8.040890e+00 -1.049737e+02 0
-9.105860e+00 -9.526989e+01 0
-1.025954e+01 -7.355524e+01 0
-1.025954e+01 -2.749726e+01 0
-3.135315e+00 -2.036268e-03 0
-2.751636e+01 -2.036268e-03 0
-2.553931e-14 3.106639e+01 0
-1.210724e+01 4.227561e+01 0
-3.824529e+00 4.185939e+01 0
-2.011834e+00 7.423464e+01 0
0.000000e+00 -1.889441e-13 0
0.000000e+00 0.000000e+00 0
-6.615864e-01 8.614860e+01 0
-1.247033e+00 6.466563e+01 0
-1.673829e+00 3.297811e+01 0
-1.673829e+00 6.929301e+00 0
0.000000e+00 0.000000e+00 0
0.000000e+00 -1.050680e-03 0
-1.761559e+00 -4.923465e+01 0
-5.117017e+00 -1.043326e+02 0
-7.920379e+00 -1.029874e+02 0
-1.138074e+01 -9.266527e+01 0
-1.406039e+01 -7.227412e+01 0
3.479401e-01 -4.405191e+01 0
-1.261212e+01 -1.655668e+01 0
-3.162683e+01 -2.036268e-03 0
-9.017980e+00 0.000000e+00 0
-7.839096e+00 1.696965e+01 0
-4.940192e+00 4.713657e+01 0
-2.472421e+00 7.259440e+01 0
0.000000e+00 -1.740275e-13 0
0.000000e+00 0.000000e+00 0
-1.395833e-01 8.643577e+01 0
4.582295e-01 6.427514e+01 0
2.327317e+00 3.244782e+01 0
2.412970e-01 6.929301e+00 0
0.000000e+00 0.000000e+00 0
0.000000e+00 -1.099833e-18 0
-6.169589e-01 -4.974577e+01 0
-3.580688e+00 -1.034901e+02 0
-6.969813e+00 -9.946965e+01 0
-1.002581e+01 -8.908337e+01 0
-1.241287e+01 -8.048289e+01 0
-8.448493e-02 -3.712831e+01 0
2.483162e+01 -2.762236e+01 0
-1.105550e-01 -1.409818e+01 0
1.206091e+01 3.631745e+01 0
1.887927e-01 3.711200e+01 0
-7.810067e+00 4.225265e+01 0
-3.321840e+00 6.903068e+01 0
0.000000e+00 -1.740275e-13 0
0.000000e+00 0.000000e+00 0
-4.235685e-01 8.568690e+01 0
-1.013280e+00 6.218004e+01 0
-1.408335e+01 2.416556e+01 0
0.000000e+00 0.000000e+00 0
0.000000e+00 0.000000e+00 0
0.000000e+00 -4.938737e+01 0
-6.169589e-01 -9.872180e+01 0
-1.822861e+00 -1.018258e+02 0
-5.363612e+00 -9.730061e+01 0
-5.301040e+00 -8.718098e+01 0
-3.644428e+00 -7.740088e+01 0
7.416246e-01 -6.192680e+01 0
5.615977e+01 -4.854419e+01 0
2.313630e+01 -7.684234e-01 0
2.107889e+01 5.682472e+01 0
8.027889e+00 6.142244e+01 0
3.730061e+00 5.112054e+01 0
-1.031578e+00 6.472516e+01 0
0.000000e+00 -1.690552e-13 0
0.000000e+00 0.000000e+00 0
-6.107290e-01 8.745672e+01 0
-2.488888e+00 7.803841e+01 0
-1.690174e+01 3.868760e+01 0
0.000000e+00 0.000000e+00 0
0.000000e+00 0.000000e+00 0
0.000000e+00 0.000000e+00 0
0.000000e+00 -5.000000e+01 0
0.000000e+00 -1.020990e+02 0
-4.144628e+00 -9.788734e+01 0
-1.871204e+00 -9.081558e+01 0
3.305105e+00 -8.657133e+01 0
1.581188e+01 -8.262371e+01 0
2.602617e+01 -3.542483e+01 0
-8.974091e+00 5.654739e+00 0
-3.729425e+00 0.000000e+00 0
0.000000e+00 2.547585e+01 0
1.780469e+01 5.721807e+01 0
2.954630e+00 7.179615e+01 0
0.000000e+00 -1.690552e-13 0
0.000000e+00 7.385675e-16 0
8.688182e-01 8.819464e+01 0
1.065890e+00 7.859448e+01 0
1.065890e+00 3.868760e+01 0
0.000000e+00 0.000000e+00 0
0.000000e+00 0.000000e+00 0
0.000000e+00 0.000000e+00 0
0.000000e+00 -5.000000e+01 0
0.000000e+00 -1.018611e+02 0
-3.576654e+00 -9.896104e+01 0
-1.625960e+00 -9.468715e+01 0
1.319589e+00 -9.521793e+01 0
5.725648e+00 -8.481999e+01 0
-1.797535e+01 -2.254350e+01 0
-1.472235e+01 4.469094e+01 0
9.835760e+00 3.004513e+01 0
0.000000e+00 -2.157896e-03 0
1.728947e+01 3.961224e+01 0
3.111646e+00 8.115080e+01 0
0.000000e+00 -1.690552e-13 0
0.000000e+00 3.527801e-01 0
1.049299e+00 8.658837e+01 0
5.015336e+00 7.804545e+01 0
-3.033337e+00 3.868760e+01 0
0.000000e+00 0.000000e+00 0
0.000000e+00 0.000000e+00 0
0.000000e+00 0.000000e+00 0
0.000000e+00 -5.000000e+01 0
0.000000e+00 -1.015177e+02 0
-3.407144e+00 -9.927154e+01 0
-2.490752e+00 -9.574891e+01 0
-2.021364e+00 -9.397863e+01 0
-3.714641e+00 -6.318260e+01 0
-2.792103e+01 -1.379498e+01 0
-1.099292e+01 8.705016e+00 0
1.356518e+01 5.300976e+00 0
0.000000e+00 4.485638e+01 0
7.487993e+00 8.906611e+01 0
1.555000e+01 8.687780e+01 0
0.000000e+00 -1.889441e-13 0
0.000000e+00 0.000000e+00 0
0.000000e+00 4.443653e+01 0
-4.413578e+00 9.123379e+01 0
-4.413578e+00 4.679725e+01 0
0.000000e+00 0.000000e+00 0
0.000000e+00 0.000000e+00 0
0.000000e+00 0.000000e+00 0
0.000000e+00 -5.000000e+01 0
0.000000e+00 -1.010616e+02 0
-3.276521e+00 -9.908488e+01 0
-2.940907e+00 -9.608343e+01 0
-2.960191e+00 -9.398477e+01 0
-2.648399e+00 -5.872412e+01 0
-1.375765e+01 -1.521008e+01 0
0.000000e+00 2.890434e+00 0
0.000000e+00 5.300976e+00 0
0.000000e+00 0.000000e+00 0
0.000000e+00 4.834076e+01 0
1.592298e+01 9.988234e+01 0
0.000000e+00 -2.187774e-13 0
0.000000e+00 0.000000e+00 0
0.000000e+00 6.097556e+01 0
-2.095964e+01 9.966317e+01 0
-1.291096e+01 3.868760e+01 0
0.000000e+00 0.000000e+00 0
0.000000e+00 0.000000e+00 0
0.000000e+00 0.000000e+00 0
0.000000e+00 -5.000000e+01 0
0.000000e+00 -1.005598e+02 0
-3.028176e+00 -9.865182e+01 0
-2.965914e+00 -9.606764e+01 0
-3.393854e+00 -9.427336e+01 0
-3.708481e+00 -5.230334e+01 0
-2.375033e+01 -6.005604e+00 0
-2.444227e+01 0.000000e+00 0
-2.444227e+01 0.000000e+00 0
0.000000e+00 0.000000e+00 0
0.000000e+00 4.834076e+01 0
-3.704146e+00 1.037644e+02 0
0.000000e+00 -2.386662e-13 0
0.000000e+00 -2.871383e+01 0
-6.837036e-01 5.875510e+01 0
-1.001178e+01 9.744270e+01 0
-1.001178e+01 3.868760e+01 0
0.000000e+00 0.000000e+00 0
0.000000e+00 0.000000e+00 0
0.000000e+00 0.000000e+00 0
0.000000e+00 -5.000000e+01 0
0.000000e+00 -1.001059e+02 0
-2.533063e+00 -9.819186e+01 0
-2.407078e+00 -9.571499e+01 0
-2.911736e+00 -9.323658e+01 0
-3.964988e+00 -3.822111e+01 0
-2.767519e+01 2.555876e+01 0
-3.740392e+01 9.490128e+00 0
-3.813114e+01 -8.682171e+00 0
-1.368888e+01 0.000000e+00 0
0.000000e+00 1.469619e+01 0
-1.284957e+01 6.857049e+01 0
0.000000e+00 -2.187774e-13 0
0.000000e+00 0.000000e+00 0
-1.141003e+00 9.791277e+01 0
7.354800e+00 9.341149e+01 0
7.354800e+00 3.868760e+01 0
0.000000e+00 0.000000e+00 0
0.000000e+00 0.000000e+00 0
0.000000e+00 0.000000e+00 0
0.000000e+00 -5.000000e+01 0
0.000000e+00 -9.981401e+01 0
-1.768637e+00 -9.803297e+01 0
-1.178251e+00 -9.568610e+01 0
-5.100718e-01 -9.270365e+01 0
1.248670e+00 -2.735997e+01 0
-1.133939e+01 2.629022e+01 0
-1.238940e+01 4.642470e-01 0
-1.368888e+01 -1.140819e+01 0
-1.307445e+01 -3.458756e+00 0
-6.988362e+00 1.469619e+01 0
-1.184031e+01 6.216853e+01 0
0.000000e+00 -2.088330e-13 0
0.000000e+00 0.000000e+00 0
2.226961e-02 9.384458e+01 0
-4.561057e-01 8.888254e+01 0
4.037603e+00 3.868760e+01 0
0.000000e+00 0.000000e+00 0
0.000000e+00 0.000000e+00 0
0.000000e+00 0.000000e+00 0
0.000000e+00 -5.000000e+01 0
0.000000e+00 -9.974442e+01 0
-9.928317e-01 -9.842526e+01 0
-2.673682e-02 -9.698309e+01 0
1.632185e+00 -9.568188e+01 0
5.068738e+00 -2.730975e+01 0
2.891878e+00 2.848357e+01 0
5.722517e-01 8.413686e+00 0
1.296088e-15 -3.458756e+00 0
6.144274e-01 1.520591e+01 0
-7.539002e+00 3.256560e+01 0
-6.774216e+00 5.715050e+01 0
0.000000e+00 -1.889441e-13 0
0.000000e+00 9.232376e-01 0
4.795690e-01 8.077085e+01 0
-4.493708e+00 3.760441e+01 0
0.000000e+00 0.000000e+00 0
0.000000e+00 0.000000e+00 0
0.000000e+00 0.000000e+00 0
0.000000e+00 0.000000e+00 0
0.000000e+00 -5.000000e+01 0
0.000000e+00 -9.980148e+01 0
-4.690349e-01 -9.899385e+01 0
4.178833e-01 -9.833100e+01 0
1.763972e+00 -9.783772e+01 0
3.506243e+00 -2.862920e+01 0
2.319626e+00 2.006989e+01 0
0.000000e+00 0.000000e+00 0
-5.387785e-14 0.000000e+00 0
-2.554150e+01 1.777179e+01 0
-4.313560e+00 3.352677e+01 0
-4.505511e+00 5.640178e+01 0
0.000000e+00 -1.789997e-13 0
0.000000e+00 0.000000e+00 0
0.000000e+00 3.760441e+01 0
0.000000e+00 7.629201e+01 0
0.000000e+00 3.868760e+01 0
0.000000e+00 0.000000e+00 0
0.000000e+00 0.000000e+00 0
0.000000e+00 0.000000e+00 0
0.000000e+00 -5.000000e+01 0
0.000000e+00 -9.988549e+01 0
-2.036351e-01 -9.945996e+01 0
3.940111e-01 -9.923301e+01 0
1.117071e+00 -9.879364e+01 0
1.566849e+00 -4.913510e+01 0
0.000000e+00 0.000000e+00 0
0.000000e+00 0.000000e+00 0
-5.260887e-14 1.776578e+01 0
-2.493992e+01 3.508061e+01 0
-3.161342e+00 3.121525e+01 0
-2.979997e+00 5.261035e+01 0
0.000000e+00 -1.591108e-13 0
0.000000e+00 0.000000e+00 0
0.000000e+00 0.000000e+00 0
0.000000e+00 3.868760e+01 0
0.000000e+00 3.868760e+01 0
0.000000e+00 0.000000e+00 0
0.000000e+00 0.000000e+00 0
0.000000e+00 0.000000e+00 0
0.000000e+00 -5.000000e+01 0
0.000000e+00 -9.994799e+01 0
-9.241920e-02 -9.974254e+01 0
2.415725e-01 -9.966171e+01 0
5.374455e-01 -9.901944e+01 0
1.128430e+00 -4.915228e+01 0
0.000000e+00 0.000000e+00 0
0.000000e+00 0.000000e+00 0
1.268982e-15 1.776578e+01 0
6.015777e-01 3.508061e+01 0
6.015777e-01 3.281426e+01 0
-2.265301e+01 5.314366e+01 0
0.000000e+00 -1.591108e-13 0
0.000000e+00 0.000000e+00 0
0.000000e+00 0.000000e+00 0
0.000000e+00 3.868760e+01 0
0.000000e+00 3.868760e+01 0
0.000000e+00 0.000000e+00 0
0.000000e+00 0.000000e+00 0
0.000000e+00 0.000000e+00 0
0.000000e+00 -5.000000e+01 0
0.000000e+00 -9.998486e+01 0
-4.667629e-02 -9.989585e+01 0
1.270710e-01 -9.986765e+01 0
2.542598e-01 -9.968722e+01 0
1.095610e+00 -4.973057e+01 0
0.000000e+00 0.000000e+00 0
0.000000e+00 0.000000e+00 0
0.000000e+00 0.000000e+00 0
0.000000e+00 0.000000e+00 0
0.000000e+00 1.549943e+01 0
-4.409598e+01 3.138473e+01 0
0.000000e+00 -6.712488e-14 0
0.000000e+00 0.000000e+00 0
0.000000e+00 0.000000e+00 0
0.000000e+00 3.868760e+01 0
0.000000e+00 3.868760e+01 0
0.000000e+00 0.000000e+00 0
0.000000e+00 0.000000e+00 0
0.000000e+00 0.000000e+00 0
0.000000e+00 -5.000000e+01 0
0.000000e+00 -1.000036e+02 0
-2.676327e-02 -9.997321e+01 0
5.949113e-02 -9.996493e+01 0
1.150104e-01 -9.999532e+01 0
3.824190e-01 -5.000000e+01 0
0.000000e+00 0.000000e+00 0
0.000000e+00 0.000000e+00 0
0.000000e+00 0.000000e+00 0
0.000000e+00 0.000000e+00 0
0.000000e+00 0.000000e+00 0
-2.250066e+01 0.000000e+00 0
0.000000e+00 0.000000e+00 0
0.000000e+00 0.000000e+00 0
0.000000e+00 0.000000e+00 0
0.000000e+00 0.000000e+00 0
0.000000e+00 0.000000e+00 0
0.000000e+00 0.000000e+00 0
0.000000e+00 0.000000e+00 0
0.000000e+00 0.000000e+00 0
0.000000e+00 -5.000000e+01 0
0.000000e+00 -1.000117e+02 0
-1.723104e-02 -1.000096e+02 0
2.313041e-02 -1.000105e+02 0
4.642411e-02 -1.000126e+02 0
4.642411e-02 -5.000000e+01 0
0.000000e+00 0.000000e+00 0
0.000000e+00 0.000000e+00 0
0.000000e+00 0.000000e+00 0
0.000000e+00 0.000000e+00 0
0.000000e+00 0.000000e+00 0
0.000000e+00 0.000000e+00 0
0.000000e+00 0.000000e+00 0
0.000000e+00 0.000000e+00 0
0.000000e+00 0.000000e+00 0
0.000000e+00 0.000000e+00 0
0.000000e+00 0.000000e+00 0
0.000000e+00 0.000000e+00 0
0.000000e+00 0.000000e+00 0
0.000000e+00 0.000000e+00 0
0.000000e+00 -5.000000e+01 0
0.000000e+00 -1.000139e+02 0
-1.219025e-02 -1.000242e+02 0
4.160772e-03 -1.000291e+02 0
1.104614e-02 -1.000188e+02 0
1.104614e-02 -5.000000e+01 0
0.000000e+00 0.000000e+00 0
0.000000e+00 0.000000e+00 0
0.000000e+00 0.000000e+00 0
0.000000e+00 0.000000e+00 0
0.000000e+00 0.000000e+00 0
0.000000e+00 0.000000e+00 0
0.000000e+00 0.000000e+00 0
0.000000e+00 0.000000e+00 0
0.000000e+00 0.000000e+00 0
0.000000e+00 0.000000e+00 0
0.000000e+00 0.000000e+00 0
0.000000e+00 0.000000e+00 0
0.000000e+00 0.000000e+00 0
0.000000e+00 0.000000e+00 0
0.000000e+00 -5.000000e+01 0
0.000000e+00 -1.000132e+02 0
-9.090755e-03 -1.000275e+02 0
-5.160818e-03 -1.000339e+02 0
-6.453645e-03 -1.000195e+02 0
-6.453645e-03 -5.000000e+01 0
0.000000e+00 0.000000e+00 0
0.000000e+00 0.000000e+00 0
0.000000e+00 0.000000e+00 0
0.000000e+00 0.000000e+00 0
0.000000e+00 0.000000e+00 0
0.000000e+00 0.000000e+00 0
0.000000e+00 0.000000e+00 0
0.000000e+00 0.000000e+00 0
0.000000e+00 0.000000e+00 0
0.000000e+00 0.000000e+00 0
0.000000e+00 0.000000e+00 0
0.000000e+00 0.000000e+00 0
0.000000e+00 0.000000e+00 0
0.000000e+00 0.000000e+00 0
0.000000e+00 -5.000000e+01 0
0.000000e+00 -1.000110e+02 0
-6.775154e-03 -1.000253e+02 0
-9.186575e-03 -1.000317e+02 0
-1.460051e-02 -1.000175e+02 0
-1.460051e-02 -5.000000e+01 0
0.000000e+00 0.000000e+00 0
0.000000e+00 0.000000e+00 0
0.000000e+00 0.000000e+00 0
0.000000e+00 0.000000e+00 0
0.000000e+00 0.000000e+00 0
0.000000e+00 0.000000e+00 0
0.000000e+00 0.000000e+00 0
0.000000e+00 0.000000e+00 0
0.000000e+00 0.000000e+00 0
0.000000e+00 0.000000e+00 0
0.000000e+00 0.000000e+00 0
0.000000e+00 0.000000e+00 0
0.000000e+00 0.000000e+00 0
0.000000e+00 0.000000e+00 0
0.000000e+00 -5.000000e+01 0
0.000000e+00 -1.000084e+02 0
-4.693235e-03 -1.000204e+02 0
-1.020632e-02 -1.000260e+02 0
-1.759865e-02 -1.000141e+02 0
-1.759865e-02 -5.000000e+01 0
0.000000e+00 0.000000e+00 0
0.000000e+00 0.000000e+00 0
0.000000e+00 0.000000e+00 0
0.000000e+00 0.000000e+00 0
0.000000e+00 0.000000e+00 0
0.000000e+00 0.000000e+00 0
0.000000e+00 0.000000e+00 0
0.000000e+00 0.000000e+00 0
0.000000e+00 0.000000e+00 0
0.000000e+00 0.000000e+00 0
0.000000e+00 0.000000e+00 0
0.000000e+00 0.000000e+00 0
0.000000e+00 0.000000e+00 0
0.000000e+00 0.000000e+00 0
0.000000e+00 -5.000000e+01 0
0.000000e+00 -1.000058e+02 0
-2.584840e-03 -1.000145e+02 0
-9.354430e-03 -1.000187e+02 0
-1.746786e-02 -1.000100e+02 0
-1.746786e-02 -5.000000e+01 0
0.000000e+00 0.000000e+00 0
0.000000e+00 0.000000e+00 0
0.000000e+00 0.000000e+00 0
0.000000e+00 0.000000e+00 0
0.000000e+00 0.000000e+00 0
0.000000e+00 0.000000e+00 0
0.000000e+00 0.000000e+00 0
0.000000e+00 0.000000e+00 0
0.000000e+00 0.000000e+00 0
0.000000e+00 0.000000e+00 0
0.000000e+00 0.000000e+00 0
0.000000e+00 0.000000e+00 0
0.000000e+00 0.000000e+00 0
0.000000e+00 0.000000e+00 0
0.000000e+00 -5.000000e+01 0
0.000000e+00 -1.000036e+02 0
-4.276721e-04 -1.000087e+02 0
-7.142140e-03 -1.000110e+02 0
-1.493374e-02 -1.000059e+02 0
-1.493374e-02 -5.000000e+01 0
0.000000e+00 0.000000e+00 0
0.000000e+00 0.000000e+00 0
0.000000e+00 0.000000e+00 0
0.000000e+00 0.000000e+00 0
0.000000e+00 0.000000e+00 0
0.000000e+00 0.000000e+00 0
0.000000e+00 0.000000e+00 0
0.000000e+00 0.000000e+00 0
0.000000e+00 0.000000e+00 0
0.000000e+00 0.000000e+00 0
0.000000e+00 0.000000e+00 0
0.000000e+00 0.000000e+00 0
0.000000e+00 0.000000e+00 0
0.000000e+00 0.000000e+00 0
0.000000e+00 -5.000000e+01 0
0.000000e+00 -1.000017e+02 0
1.218142e-03 -1.000037e+02 0
-3.871023e-03 -1.000041e+02 0
-9.724422e-03 -1.000022e+02 0
-9.724422e-03 -5.000000e+01 0
0.000000e+00 0.000000e+00 0
0.000000e+00 0.000000e+00 0
0.000000e+00 0.000000e+00 0
0.000000e+00 0.000000e+00 0
0.000000e+00 0.000000e+00 0
0.000000e+00 0.000000e+00 0
0.000000e+00 0.000000e+00 0
0.000000e+00 0.000000e+00 0
0.000000e+00 0.000000e+00 0
0.000000e+00 0.000000e+00 0
0.000000e+00 0.000000e+00 0
0.000000e+00 0.000000e+00 0
0.000000e+00 0.000000e+00 0
0.000000e+00 0.000000e+00 0
0.000000e+00 -5.000000e+01 0
0.000000e+00 -1.000000e+02 0
7.435255e-18 -1.000000e+02 0
-8.345695e-18 -1.000000e+02 0
-2.667979e-17 -1.000000e+02 0
-2.670622e-17 -5.000000e+01 0
0.000000e+00 0.000000e+00 0
0.000000e+00 0.000000e+00 0
0.000000e+00 0.000000e+00 0
0.000000e+00 0.000000e+00 0
0.000000e+00 0.000000e+00 0
0.000000e+00 0.000000e+00 0
0.000000e+00 0.000000e+00 0
</DataArray>
<DataArray Name="Type and Neighbourhood" type="Float64" format="ascii" NumberOfComponents="3">
0.000000e+00 0.000000e+00 0
0.000000e+00 0.000000e+00 0
0.000000e+00 0.000000e+00 0
0.000000e+00 0.000000e+00 0
0.000000e+00 0.000000e+00 0
0.000000e+00 0.000000e+00 0
0.000000e+00 0.000000e+00 0
0.000000e+00 0.000000e+00 0
0.000000e+00 0.000000e+00 0