<?xml version="1.0"?>
<VTKFile type="StructuredGrid">
<StructuredGrid WholeExtent="0 19 0 33 0 0 ">
<Piece Extent="0 19 0 33 0 0 ">
<Points>
<DataArray type="Float64" format="ascii" NumberOfComponents="3">
0.000000e+00 0.000000e+00 0.000000e+00
1.052632e-01 0.000000e+00 0.000000e+00
2.105263e-01 0.000000e+00 0.000000e+00
3.157895e-01 0.000000e+00 0.000000e+00
4.210526e-01 0.000000e+00 0.000000e+00
5.263158e-01 0.000000e+00 0.000000e+00
6.315789e-01 0.000000e+00 0.000000e+00
7.368421e-01 0.000000e+00 0.000000e+00
8.421053e-01 0.000000e+00 0.000000e+00
9.473684e-01 0.000000e+00 0.000000e+00
1.052632e+00 0.000000e+00 0.000000e+00
1.157895e+00 0.000000e+00 0.000000e+00
1.263158e+00 0.000000e+00 0.000000e+00
1.368421e+00 0.000000e+00 0.000000e+00
1.473684e+00 0.000000e+00 0.000000e+00
1.578947e+00 0.000000e+00 0.000000e+00
1.684211e+00 0.000000e+00 0.000000e+00
1.789474e+00 0.000000e+00 0.000000e+00
1.894737e+00 0.000000e+00 0.000000e+00
2.000000e+00 0.000000e+00 0.000000e+00
0.000000e+00 1.060606e-01 0.000000e+00
1.052632e-01 1.060606e-01 0.000000e+00
2.105263e-01 1.060606e-01 0.000000e+00
3.157895e-01 1.060606e-01 0.000000e+00
4.210526e-01 1.060606e-01 0.000000e+00
5.263158e-01 1.060606e-01 0.000000e+00
6.315789e-01 1.060606e-01 0.000000e+00
7.368421e-01 1.060606e-01 0.000000e+00
8.421053e-01 1.060606e-01 0.000000e+00
9.473684e-01 1.060606e-01 0.000000e+00
1.052632e+00 1.060606e-01 0.000000e+00
1.157895e+00 1.060606e-01 0.000000e+00
1.263158e+00 1.060606e-01 0.000000e+00
1.368421e+00 1.060606e-01 0.000000e+00
1.473684e+00 1.060606e-01 0.000000e+00
1.578947e+00 1.060606e-01 0.000000e+00
1.684211e+00 1.060606e-01 0.000000e+00
1.789474e+00 1.060606e-01 0.000000e+00
1.894737e+00 1.060606e-01 0.000000e+00
2.000000e+00 1.060606e-01 0.000000e+00
0.000000e+00 2.121212e-01 0.000000e+00
1.052632e-01 2.121212e-01 0.000000e+00
2.105263e-01 2.121212e-01 0.000000e+00
3.157895e-01 2.121212e-01 0.000000e+00
4.210526e-01 2.121212e-01 0.000000e+00
5.263158e-01 2.121212e-01 0.000000e+00
6.315789e-01 2.121212e-01 0.000000e+00
7.368421e-01 2.121212e-01 0.000000e+00
8.421053e-01 2.121212e-01 0.000000e+00
9.473684e-01 2.121212e-01 0.000000e+00
1.052632e+00 2.121212e-01 0.000000e+00
1.157895e+00 2.121212e-01 0.000000e+00
1.263158e+00 2.121212e-01 0.000000e+00
1.368421e+00 2.121212e-01 0.000000e+00
1.473684e+00 2.121212e-01 0.000000e+00
1.578947e+00 2.121212e-01 0.000000e+00
1.684211e+00 2.121212e-01 0.000000e+00
1.789474e+00 2.121212e-01 0.000000e+00
1.894737e+00 2.121212e-01 0.000000e+00
2.000000e+00 2.121212e-01 0.000000e+00
0.000000e+00 3.181818e-01 0.000000e+00
1.052632e-01 3.181818e-01 0.000000e+00
2.105263e-01 3.181818e-01 0.000000e+00
3.157895e-01 3.181818e-01 0.000000e+00
4.210526e-01 3.181818e-01 0.000000e+00
5.263158e-01 3.181818e-01 0.000000e+00
6.315789e-01 3.181818e-01 0.000000e+00
7.368421e-01 3.181818e-01 0.000000e+00
8.421053e-01 3.181818e-01 0.000000e+00
9.473684e-01 3.181818e-01 0.000000e+00
1.052632e+00 3.181818e-01 0.000000e+00
1.157895e+00 3.181818e-01 0.000000e+00
1.263158e+00 3.181818e-01 0.000000e+00
1.368421e+00 3.181818e-01 0.000000e+00
1.473684e+00 3.181818e-01 0.000000e+00
1.578947e+00 3.181818e-01 0.000000e+00
1.684211e+00 3.181818e-01 0.000000e+00
1.789474e+00 3.181818e-01 0.000000e+00
1.894737e+00 3.181818e-01 0.000000e+00
2.000000e+00 3.181818e-01 0.000000e+00
0.000000e+00 4.242424e-01 0.000000e+00
1.052632e-01 4.242424e-01 0.000000e+00
2.105263e-01 4.242424e-01 0.000000e+00
3.157895e-01 4.242424e-01 0.000000e+00
4.210526e-01 4.242424e-01 0.000000e+00
5.263158e-01 4.242424e-01 0.000000e+00
6.315789e-01 4.242424e-01 0.000000e+00
7.368421e-01 4.242424e-01 0.000000e+00
8.421053e-01 4.242424e-01 0.000000e+00
9.473684e-01 4.242424e-01 0.000000e+00
1.052632e+00 4.242424e-01 0.000000e+00
1.157895e+00 4.242424e-01 0.000000e+00
1.263158e+00 4.242424e-01 0.000000e+00
1.368421e+00 4.242424e-01 0.000000e+00
1.473684e+00 4.242424e-01 0.000000e+00
1.578947e+00 4.242424e-01 0.000000e+00
1.684211e+00 4.242424e-01 0.000000e+00
1.789474e+00 4.242424e-01 0.000000e+00
1.894737e+00 4.242424e-01 0.000000e+00
2.000000e+00 4.242424e-01 0.000000e+00
0.000000e+00 5.303030e-01 0.000000e+00
1.052632e-01 5.303030e-01 0.000000e+00
2.105263e-01 5.303030e-01 0.000000e+00
3.157895e-01 5.303030e-01 0.000000e+00
4.210526e-01 5.303030e-01 0.000000e+00
5.263158e-01 5.303030e-01 0.000000e+00
6.315789e-01 5.303030e-01 0.000000e+00
7.368421e-01 5.303030e-01 0.000000e+00
8.421053e-01 5.303030e-01 0.000000e+00
9.473684e-01 5.303030e-01 0.000000e+00
1.052632e+00 5.303030e-01 0.000000e+00
1.157895e+00 5.303030e-01 0.000000e+00
1.263158e+00 5.303030e-01 0.000000e+00
1.368421e+00 5.303030e-01 0.000000e+00
1.473684e+00 5.303030e-01 0.000000e+00
1.578947e+00 5.303030e-01 0.000000e+00
1.684211e+00 5.303030e-01 0.000000e+00
1.789474e+00 5.303030e-01 0.000000e+00
1.894737e+00 5.303030e-01 0.000000e+00
2.000000e+00 5.303030e-01 0.000000e+00
0.000000e+00 6.363636e-01 0.000000e+00
1.052632e-01 6.363636e-01 0.000000e+00
2.105263e-01 6.363636e-01 0.000000e+00
3.157895e-01 6.363636e-01 0.000000e+00
4.210526e-01 6.363636e-01 0.000000e+00
5.263158e-01 6.363636e-01 0.000000e+00
6.315789e-01 6.363636e-01 0.000000e+00
7.368421e-01 6.363636e-01 0.000000e+00
8.421053e-01 6.363636e-01 0.000000e+00
9.473684e-01 6.363636e-01 0.000000e+00
1.052632e+00 6.363636e-01 0.000000e+00
1.157895e+00 6.363636e-01 0.000000e+00
1.263158e+00 6.363636e-01 0.000000e+00
1.368421e+00 6.363636e-01 0.000000e+00
1.473684e+00 6.363636e-01 0.000000e+00
1.578947e+00 6.363636e-01 0.000000e+00
1.684211e+00 6.363636e-01 0.000000e+00
1.789474e+00 6.363636e-01 0.000000e+00
1.894737e+00 6.363636e-01 0.000000e+00
2.000000e+00 6.363636e-01 0.000000e+00
0.000000e+00 7.424242e-01 0.000000e+00
1.052632e-01 7.424242e-01 0.000000e+00
2.105263e-01 7.424242e-01 0.000000e+00
3.157895e-01 7.424242e-01 0.000000e+00
4.210526e-01 7.424242e-01 0.000000e+00
5.263158e-01 7.424242e-01 0.000000e+00
6.315789e-01 7.424242e-01 0.000000e+00
7.368421e-01 7.424242e-01 0.000000e+00
8.421053e-01 7.424242e-01 0.000000e+00
9.473684e-01 7.424242e-01 0.000000e+00
1.052632e+00 7.424242e-01 0.000000e+00
1.157895e+00 7.424242e-01 0.000000e+00
1.263158e+00 7.424242e-01 0.000000e+00
1.368421e+00 7.424242e-01 0.000000e+00
1.473684e+00 7.424242e-01 0.000000e+00
1.578947e+00 7.424242e-01 0.000000e+00
1.684211e+00 7.424242e-01 0.000000e+00
1.789474e+00 7.424242e-01 0.000000e+00
1.894737e+00 7.424242e-01 0.000000e+00
2.000000e+00 7.424242e-01 0.000000e+00
0.000000e+00 8.484848e-01 0.000000e+00
1.052632e-01 8.484848e-01 0.000000e+00
2.105263e-01 8.484848e-01 0.000000e+00
3.157895e-01 8.484848e-01 0.000000e+00
4.210526e-01 8.484848e-01 0.000000e+00
5.263158e-01 8.484848e-01 0.000000e+00
6.315789e-01 8.484848e-01 0.000000e+00
7.368421e-01 8.484848e-01 0.000000e+00
8.421053e-01 8.484848e-01 0.000000e+00
9.473684e-01 8.484848e-01 0.000000e+00
1.052632e+00 8.484848e-01 0.000000e+00
1.157895e+00 8.484848e-01 0.000000e+00
1.263158e+00 8.484848e-01 0.000000e+00
1.368421e+00 8.484848e-01 0.000000e+00
1.473684e+00 8.484848e-01 0.000000e+00
1.578947e+00 8.484848e-01 0.000000e+00
1.684211e+00 8.484848e-01 0.000000e+00
1.789474e+00 8.484848e-01 0.000000e+00
1.894737e+00 8.484848e-01 0.000000e+00
2.000000e+00 8.484848e-01 0.000000e+00
0.000000e+00 9.545455e-01 0.000000e+00
1.052632e-01 9.545455e-01 0.000000e+00
2.105263e-01 9.545455e-01 0.000000e+00
3.157895e-01 9.545455e-01 0.000000e+00
4.210526e-01 9.545455e-01 0.000000e+00
5.263158e-01 9.545455e-01 0.000000e+00
6.315789e-01 9.545455e-01 0.000000e+00
7.368421e-01 9.545455e-01 0.000000e+00
8.421053e-01 9.545455e-01 0.000000e+00
9.473684e-01 9.545455e-01 0.000000e+00
1.052632e+00 9.545455e-01 0.000000e+00
1.157895e+00 9.545455e-01 0.000000e+00
1.263158e+00 9.545455e-01 0.000000e+00
1.368421e+00 9.545455e-01 0.000000e+00
1.473684e+00 9.545455e-01 0.000000e+00
1.578947e+00 9.545455e-01 0.000000e+00
1.684211e+00 9.545455e-01 0.000000e+00
1.789474e+00 9.545455e-01 0.000000e+00
1.894737e+00 9.545455e-01 0.000000e+00
2.000000e+00 9.545455e-01 0.000000e+00
0.000000e+00 1.060606e+00 0.000000e+00
1.052632e-01 1.060606e+00 0.000000e+00
2.105263e-01 1.060606e+00 0.000000e+00
3.157895e-01 1.060606e+00 0.000000e+00
4.210526e-01 1.060606e+00 0.000000e+00
5.263158e-01 1.060606e+00 0.000000e+00
6.315789e-01 1.060606e+00 0.000000e+00
7.368421e-01 1.060606e+00 0.000000e+00
8.421053e-01 1.060606e+00 0.000000e+00
9.473684e-01 1.060606e+00 0.000000e+00
1.052632e+00 1.060606e+00 0.000000e+00
1.157895e+00 1.060606e+00 0.000000e+00
1.263158e+00 1.060606e+00 0.000000e+00
1.368421e+00 1.060606e+00 0.000000e+00
1.473684e+00 1.060606e+00 0.000000e+00
1.578947e+00 1.060606e+00 0.000000e+00
1.684211e+00 1.060606e+00 0.000000e+00
1.789474e+00 1.060606e+00 0.000000e+00
1.894737e+00 1.060606e+00 0.000000e+00
2.000000e+00 1.060606e+00 0.000000e+00
0.000000e+00 1.166667e+00 0.000000e+00
1.052632e-01 1.166667e+00 0.000000e+00
2.105263e-01 1.166667e+00 0.000000e+00
3.157895e-01 1.166667e+00 0.000000e+00
4.210526e-01 1.166667e+00 0.000000e+00
5.263158e-01 1.166667e+00 0.000000e+00
6.315789e-01 1.166667e+00 0.000000e+00
7.368421e-01 1.166667e+00 0.000000e+00
8.421053e-01 1.166667e+00 0.000000e+00
9.473684e-01 1.166667e+00 0.000000e+00
1.052632e+00 1.166667e+00 0.000000e+00
1.157895e+00 1.166667e+00 0.000000e+00
1.263158e+00 1.166667e+00 0.000000e+00
1.368421e+00 1.166667e+00 0.000000e+00
1.473684e+00 1.166667e+00 0.000000e+00
1.578947e+00 1.166667e+00 0.000000e+00
1.684211e+00 1.166667e+00 0.000000e+00
1.789474e+00 1.166667e+00 0.000000e+00
1.894737e+00 1.166667e+00 0.000000e+00
2.000000e+00 1.166667e+00 0.000000e+00
0.000000e+00 1.272727e+00 0.000000e+00
1.052632e-01 1.272727e+00 0.000000e+00
2.105263e-01 1.272727e+00 0.000000e+00
3.157895e-01 1.272727e+00 0.000000e+00
4.210526e-01 1.272727e+00 0.000000e+00
5.263158e-01 1.272727e+00 0.000000e+00
6.315789e-01 1.272727e+00 0.000000e+00
7.368421e-01 1.272727e+00 0.000000e+00
8.421053e-01 1.272727e+00 0.000000e+00
9.473684e-01 1.272727e+00 0.000000e+00
1.052632e+00 1.272727e+00 0.000000e+00
[...]
<PointData>
<DataArray Name="Velocity" type="Float64" format="ascii" NumberOfComponents="3">
0.000000e+00 0.000000e+00 0
0.000000e+00 0.000000e+00 0
0.000000e+00 0.000000e+00 0
0.000000e+00 0.000000e+00 0
0.000000e+00 0.000000e+00 0
0.000000e+00 0.000000e+00 0
0.000000e+00 0.000000e+00 0
0.000000e+00 0.000000e+00 0
0.000000e+00 0.000000e+00 0
0.000000e+00 0.000000e+00 0
0.000000e+00 0.000000e+00 0
-5.710147e-16 0.000000e+00 0
0.000000e+00 0.000000e+00 0
0.000000e+00 0.000000e+00 0
0.000000e+00 0.000000e+00 0
-2.435960e-15 0.000000e+00 0
0.000000e+00 0.000000e+00 0
0.000000e+00 0.000000e+00 0
0.000000e+00 0.000000e+00 0
0.000000e+00 0.000000e+00 0
0.000000e+00 0.000000e+00 0
-2.345892e+01 2.245260e+01 0
-4.250520e+01 1.691149e+01 0
-5.643677e+01 1.098683e+01 0
-6.452181e+01 4.375486e+00 0
-6.595149e+01 -2.989310e+00 0
-5.990020e+01 -1.118617e+01 0
-4.573297e+01 -1.898192e+01 0
-2.454301e+01 -2.177269e+01 0
-2.970896e+00 -1.825356e+01 0
1.328870e+01 -1.515985e+01 0
2.890977e+01 -1.550439e+01 0
4.502638e+01 -1.414662e+01 0
5.675651e+01 -8.893160e+00 0
6.186490e+01 -2.394529e+00 0
6.068783e+01 3.846459e+00 0
5.334174e+01 8.895722e+00 0
4.135060e+01 1.549143e+01 0
2.446054e+01 2.186970e+01 0
0.000000e+00 -4.972213e-14 0
0.000000e+00 0.000000e+00 0
-2.014297e+01 4.282721e+01 0
-3.753941e+01 3.322768e+01 0
-5.084027e+01 2.218340e+01 0
-5.926384e+01 9.586803e+00 0
-6.170920e+01 -4.656620e+00 0
-5.730467e+01 -2.037170e+01 0
-4.559734e+01 -3.562505e+01 0
-2.633603e+01 -4.308603e+01 0
-3.684413e+00 -3.811831e+01 0
1.300272e+01 -3.212219e+01 0
2.955449e+01 -3.197812e+01 0
4.591097e+01 -2.805770e+01 0
5.708989e+01 -1.696608e+01 0
6.085130e+01 -3.961110e+00 0
5.946441e+01 8.587733e+00 0
5.037850e+01 1.948372e+01 0
3.672055e+01 2.909999e+01 0
2.285614e+01 4.166387e+01 0
0.000000e+00 -1.044165e-13 0
0.000000e+00 0.000000e+00 0
-1.612073e+01 6.027640e+01 0
-3.056594e+01 4.784134e+01 0
-4.224247e+01 3.287584e+01 0
-5.034068e+01 1.532676e+01 0
-5.344712e+01 -4.963321e+00 0
-5.077196e+01 -2.742009e+01 0
-4.204205e+01 -5.018517e+01 0
-2.499628e+01 -6.400314e+01 0
-3.603748e+00 -5.789033e+01 0
1.221485e+01 -4.865056e+01 0
2.820158e+01 -4.866194e+01 0
4.432624e+01 -4.189062e+01 0
5.576926e+01 -2.394667e+01 0
6.038450e+01 -4.787044e+00 0
5.807373e+01 1.439860e+01 0
4.719721e+01 3.181189e+01 0
3.248369e+01 4.322229e+01 0
1.787667e+01 5.886843e+01 0
0.000000e+00 -1.491664e-13 0
0.000000e+00 0.000000e+00 0
-1.121682e+01 7.362471e+01 0
-2.107390e+01 5.954732e+01 0
-2.835740e+01 4.210795e+01 0
-3.371067e+01 2.087634e+01 0
-3.862872e+01 -4.222078e+00 0
-3.898566e+01 -3.186317e+01 0
-3.485033e+01 -6.159600e+01 0
-2.134651e+01 -8.181553e+01 0
-4.591486e+00 -7.561134e+01 0
9.983603e+00 -6.416846e+01 0
2.383427e+01 -6.433279e+01 0
3.810533e+01 -5.583422e+01 0
4.751542e+01 -3.314599e+01 0
5.112943e+01 -7.973464e+00 0
4.944283e+01 2.018450e+01 0
3.784085e+01 4.526763e+01 0
2.452478e+01 5.864265e+01 0
1.212313e+01 7.439364e+01 0
0.000000e+00 -1.889441e-13 0
0.000000e+00 0.000000e+00 0
-6.547783e+00 8.150995e+01 0
-1.170917e+01 6.511178e+01 0
-1.419034e+01 4.560834e+01 0
-9.808183e+00 2.567590e+01 0
-7.208207e+00 3.516374e-01 0
-2.211691e+01 -3.122711e+01 0
-2.569700e+01 -6.795796e+01 0
-1.664610e+01 -9.449122e+01 0
-5.742201e+00 -8.945779e+01 0
6.386629e+00 -7.729166e+01 0
1.587960e+01 -7.699671e+01 0
1.678583e+01 -6.575117e+01 0
3.061437e+01 -2.500229e+01 0
2.067978e+01 3.647666e+00 0
2.067978e+01 2.392859e+01 0
1.000686e+01 5.474988e+01 0
9.422559e+00 6.913484e+01 0
5.344114e+00 8.357900e+01 0
0.000000e+00 -1.889441e-13 0
0.000000e+00 0.000000e+00 0
-3.294079e+00 8.542258e+01 0
-5.299734e+00 6.724778e+01 0
-4.421883e+00 4.019257e+01 0
8.400834e+00 1.384131e+01 0
1.425292e+01 8.179901e+00 0
-3.435828e-02 -1.323431e+01 0
-1.877853e+01 -6.710826e+01 0
-1.247920e+01 -1.019215e+02 0
-6.503253e+00 -9.881855e+01 0
2.125322e+00 -8.595407e+01 0
6.666130e+00 -4.141215e+01 0
0.000000e+00 -2.584937e+01 0
1.037725e+01 -2.584937e+01 0
0.000000e+00 0.000000e+00 0
-3.838294e+00 7.306248e+00 0
-2.030972e+01 3.636413e+01 0
-2.431936e+00 6.490291e+01 0
-9.862490e-02 8.388758e+01 0
0.000000e+00 -2.088330e-13 0
0.000000e+00 0.000000e+00 0
-1.629622e+00 8.684983e+01 0
-1.975485e+00 6.624813e+01 0
2.874112e+00 3.180398e+01 0
9.830089e+00 6.859614e+00 0
6.882226e+00 8.850733e+00 0
6.243215e+00 -1.043284e+01 0
-1.296381e+01 -6.790627e+01 0
-8.637303e+00 -1.068595e+02 0
-6.802951e+00 -1.041729e+02 0
-2.733400e+00 -9.056081e+01 0
6.766288e+00 -4.264687e+01 0
0.000000e+00 0.000000e+00 0
0.000000e+00 0.000000e+00 0
0.000000e+00 2.938433e+01 0
4.497135e+01 5.984615e+01 0
-2.751253e+01 4.665591e+01 0
-2.816586e+00 5.033282e+01 0
-2.485763e+00 8.112864e+01 0
0.000000e+00 -1.988885e-13 0
0.000000e+00 0.000000e+00 0
-5.988567e-01 8.741303e+01 0
-1.263518e+00 6.270993e+01 0
-1.294050e+01 2.829756e+01 0
2.921086e+00 4.881820e+00 0
0.000000e+00 0.000000e+00 0
0.000000e+00 -1.050680e-03 0
-6.433655e+00 -5.102951e+01 0
-4.977203e+00 -1.071533e+02 0
-6.298634e+00 -1.047672e+02 0
-6.630739e+00 -9.962611e+01 0
1.643518e+00 -5.098381e+01 0
0.000000e+00 0.000000e+00 0
0.000000e+00 0.000000e+00 0
-3.229871e+01 2.938433e+01 0
4.880965e+01 4.670839e+01 0
-2.227931e+01 2.149890e+01 0
6.895996e-01 3.968655e+01 0
-3.653521e+00 8.104966e+01 0
0.000000e+00 -1.889441e-13 0
0.000000e+00 0.000000e+00 0
2.793331e+00 8.812292e+01 0
1.084832e+00 7.868327e+01 0
-1.586159e+01 3.868760e+01 0
0.000000e+00 0.000000e+00 0
0.000000e+00 0.000000e+00 0
0.000000e+00 -1.050680e-03 0
-2.661751e+00 -5.026236e+01 0
-2.760105e+00 -1.051889e+02 0
-5.056763e+00 -1.025069e+02 0
-7.189559e+00 -9.856313e+01 0
-7.175054e+00 -5.098381e+01 0
0.000000e+00 0.000000e+00 0
0.000000e+00 -3.255830e+01 0
-3.229871e+01 -3.255830e+01 0
-2.166810e-14 1.732405e+01 0
-1.027204e+01 3.531705e+01 0
-3.475664e+00 5.650774e+01 0
-9.828345e+00 8.182347e+01 0
0.000000e+00 -1.740275e-13 0
0.000000e+00 0.000000e+00 0
7.153866e+00 8.631998e+01 0
3.785858e+00 4.101563e+01 0
1.996477e+00 4.049748e-14 0
0.000000e+00 0.000000e+00 0
0.000000e+00 0.000000e+00 0
0.000000e+00 -1.050680e-03 0
-9.001920e-01 -4.994134e+01 0
-1.590175e+00 -1.037511e+02 0
-4.050797e+00 -1.003042e+02 0
-6.730748e+00 -9.749177e+01 0
-1.195689e+01 -5.099842e+01 0
0.000000e+00 0.000000e+00 0
0.000000e+00 -3.408144e-14 0
0.000000e+00 -3.408144e-14 0
9.338240e-17 1.813450e-14 0
4.426915e-02 1.081103e+01 0
-4.089190e-01 5.027552e+01 0
-6.864801e+00 7.509964e+01 0
0.000000e+00 -1.491664e-13 0
0.000000e+00 0.000000e+00 0
6.583845e+00 8.430838e+01 0
2.341700e+00 8.207679e+01 0
2.341700e+00 3.868760e+01 0
0.000000e+00 0.000000e+00 0
0.000000e+00 0.000000e+00 0
0.000000e+00 0.000000e+00 0
0.000000e+00 -4.983512e+01 0
-5.282853e-01 -1.023135e+02 0
-4.176493e+00 -9.735749e+01 0
-7.705184e+00 -9.059714e+01 0
-1.813616e+01 -4.571807e+01 0
-1.325811e+01 -4.917637e-14 0
0.000000e+00 -1.643018e-03 0
7.549096e+00 -1.449381e-02 0
7.549096e+00 -6.906366e-02 0
4.426915e-02 6.935639e+00 0
3.834734e+00 5.806740e+01 0
5.401378e+00 8.746746e+01 0
0.000000e+00 -1.491664e-13 0
0.000000e+00 0.000000e+00 0
1.196442e+00 8.396054e+01 0
-1.437684e+00 8.397752e+01 0
-1.437684e+00 3.868760e+01 0
0.000000e+00 0.000000e+00 0
0.000000e+00 0.000000e+00 0
0.000000e+00 0.000000e+00 0
0.000000e+00 -5.000000e+01 0
0.000000e+00 -1.010263e+02 0
-4.460419e+00 -9.396418e+01 0
-7.146079e+00 -8.222413e+01 0
-1.151774e+01 -6.003727e+01 0
9.310755e+00 -2.348932e+01 0
2.577493e+01 3.472595e+00 0
3.948982e+01 6.198006e+00 0
7.549096e+00 -1.285079e-02 0
0.000000e+00 0.000000e+00 0
4.648240e+00 4.633315e+01 0
6.990124e+00 9.112792e+01 0
0.000000e+00 -1.889441e-13 0
0.000000e+00 2.997033e-01 0
-1.600370e+01 8.529864e+01 0
-7.441018e+00 8.427255e+01 0
-7.441018e+00 3.868760e+01 0
0.000000e+00 0.000000e+00 0
0.000000e+00 0.000000e+00 0
0.000000e+00 0.000000e+00 0
0.000000e+00 -5.000000e+01 0
0.000000e+00 -9.988518e+01 0
-3.098293e+00 -9.205824e+01 0
-1.260217e+00 -8.228415e+01 0
4.539633e+00 -8.374187e+01 0
3.344141e+01 -9.861668e+01 0
2.743430e+01 -5.498754e+01 0
3.360008e+01 -1.643018e-03 0
0.000000e+00 0.000000e+00 0
0.000000e+00 -9.856708e-03 0
4.648240e+00 4.864921e+01 0
1.059105e+01 9.535739e+01 0
0.000000e+00 -1.988885e-13 0
0.000000e+00 -2.053422e-03 0
-1.496849e+01 3.620198e+01 0
-5.658111e+00 7.489164e+01 0
-5.658111e+00 3.868760e+01 0
0.000000e+00 0.000000e+00 0
0.000000e+00 0.000000e+00 0
0.000000e+00 0.000000e+00 0
0.000000e+00 -5.000000e+01 0
0.000000e+00 -9.988346e+01 0
-1.610174e+00 -9.467338e+01 0
2.997097e+00 -8.991992e+01 0
1.027468e+01 -9.302079e+01 0
1.634135e+01 -9.359371e+01 0
-3.517660e+00 -4.570456e+01 0
-3.517252e+00 -1.643018e-03 0
0.000000e+00 0.000000e+00 0
0.000000e+00 0.000000e+00 0
0.000000e+00 5.678328e+01 0
8.251232e+00 1.117953e+02 0
0.000000e+00 -2.386662e-13 0
0.000000e+00 -2.053422e-03 0
0.000000e+00 7.240602e+01 0
0.000000e+00 7.489164e+01 0
0.000000e+00 3.868760e+01 0
0.000000e+00 0.000000e+00 0
0.000000e+00 0.000000e+00 0
0.000000e+00 0.000000e+00 0
0.000000e+00 -5.000000e+01 0
0.000000e+00 -9.995249e+01 0
-1.245694e+00 -9.676772e+01 0
1.901990e+00 -9.425903e+01 0
5.125518e+00 -9.718722e+01 0
6.658537e+00 -8.471985e+01 0
-9.361478e+00 -3.497849e+01 0
-2.189745e+01 -2.053422e-03 0
-5.446939e+01 -2.360880e-14 0
-5.446939e+01 -1.516151e-14 0
0.000000e+00 0.000000e+00 0
0.000000e+00 6.407788e+01 0
0.000000e+00 -2.684995e-13 0
0.000000e+00 0.000000e+00 0
0.000000e+00 0.000000e+00 0
0.000000e+00 3.868760e+01 0
0.000000e+00 3.868760e+01 0
0.000000e+00 0.000000e+00 0
0.000000e+00 0.000000e+00 0
0.000000e+00 0.000000e+00 0
0.000000e+00 -5.000000e+01 0
0.000000e+00 -9.996216e+01 0
-1.020948e+00 -9.792361e+01 0
7.410705e-01 -9.633940e+01 0
1.913857e+00 -9.781337e+01 0
3.290069e-01 -7.899697e+01 0
3.162747e+00 -3.060200e+01 0
-5.688899e+01 -5.075346e+00 0
-7.258103e+01 -1.127685e+01 0
-6.594772e+01 -7.241962e+00 0
-2.248872e+01 0.000000e+00 0
-1.321915e+01 5.458867e+01 0
0.000000e+00 -2.187774e-13 0
0.000000e+00 0.000000e+00 0
0.000000e+00 0.000000e+00 0
0.000000e+00 3.868760e+01 0
0.000000e+00 3.868760e+01 0
0.000000e+00 0.000000e+00 0
0.000000e+00 0.000000e+00 0
0.000000e+00 0.000000e+00 0
0.000000e+00 -5.000000e+01 0
0.000000e+00 -9.994118e+01 0
-7.507719e-01 -9.853179e+01 0
3.187265e-01 -9.721607e+01 0
8.826033e-01 -9.677203e+01 0
-6.058464e-01 -8.597821e+01 0
7.602074e+00 9.003222e+00 0
-4.016816e+01 -9.600905e+00 0
-3.421124e+01 -6.993757e+01 0
-2.440084e+01 -2.969264e-01 0
-4.029146e+01 2.858063e+01 0
-2.665621e+01 6.143854e+01 0
0.000000e+00 -1.988885e-13 0
0.000000e+00 0.000000e+00 0
0.000000e+00 0.000000e+00 0
0.000000e+00 3.868760e+01 0
0.000000e+00 3.868760e+01 0
0.000000e+00 0.000000e+00 0
0.000000e+00 0.000000e+00 0
0.000000e+00 0.000000e+00 0
0.000000e+00 -5.000000e+01 0
0.000000e+00 -9.993789e+01 0
-4.544441e-01 -9.897695e+01 0
3.887700e-01 -9.798515e+01 0
1.305669e+00 -9.688180e+01 0
2.024949e+00 -8.576734e+01 0
2.548721e-01 -3.783164e+01 0
0.000000e+00 -7.244016e+00 0
-1.609960e+01 -2.394697e+01 0
-1.292251e+01 5.625456e-01 0
-1.702825e+01 3.080040e+01 0
-2.355088e+01 4.605884e+01 0
0.000000e+00 -1.342498e-13 0
0.000000e+00 0.000000e+00 0
0.000000e+00 0.000000e+00 0
0.000000e+00 0.000000e+00 0
0.000000e+00 0.000000e+00 0
0.000000e+00 0.000000e+00 0
0.000000e+00 0.000000e+00 0
0.000000e+00 0.000000e+00 0
0.000000e+00 -5.000000e+01 0
0.000000e+00 -9.997000e+01 0
-2.486565e-01 -9.941021e+01 0
3.802478e-01 -9.898952e+01 0
1.188843e+00 -9.842060e+01 0
2.370143e+00 -4.887129e+01 0
6.041426e-01 0.000000e+00 0
0.000000e+00 0.000000e+00 0
0.000000e+00 0.000000e+00 0
0.000000e+00 1.726550e+01 0
7.744866e-01 3.995672e+01 0
-1.011383e+01 4.502471e+01 0
0.000000e+00 -9.447205e-14 0
0.000000e+00 0.000000e+00 0
0.000000e+00 0.000000e+00 0
0.000000e+00 0.000000e+00 0
0.000000e+00 0.000000e+00 0
0.000000e+00 0.000000e+00 0
0.000000e+00 0.000000e+00 0
0.000000e+00 0.000000e+00 0
0.000000e+00 -5.000000e+01 0
0.000000e+00 -9.998984e+01 0
-1.564907e-01 -9.966257e+01 0
1.890958e-01 -9.943354e+01 0
4.090522e-01 -9.915859e+01 0
3.071654e-01 -4.940393e+01 0
6.041426e-01 -6.160267e-03 0
0.000000e+00 0.000000e+00 0
0.000000e+00 0.000000e+00 0
0.000000e+00 0.000000e+00 0
0.000000e+00 2.269122e+01 0
0.000000e+00 4.386237e+01 0
0.000000e+00 -8.949984e-14 0
0.000000e+00 0.000000e+00 0
0.000000e+00 0.000000e+00 0
0.000000e+00 0.000000e+00 0
0.000000e+00 0.000000e+00 0
0.000000e+00 0.000000e+00 0
0.000000e+00 0.000000e+00 0
0.000000e+00 0.000000e+00 0
0.000000e+00 -5.000000e+01 0
0.000000e+00 -9.999339e+01 0
-9.222593e-02 -9.978181e+01 0
1.237453e-01 -9.955935e+01 0
2.719326e-01 -9.881139e+01 0
2.320274e-01 -4.904046e+01 0
0.000000e+00 0.000000e+00 0
0.000000e+00 0.000000e+00 0
0.000000e+00 0.000000e+00 0
0.000000e+00 0.000000e+00 0
0.000000e+00 2.117115e+01 0
0.000000e+00 4.234230e+01 0
0.000000e+00 -8.949984e-14 0
0.000000e+00 0.000000e+00 0
0.000000e+00 0.000000e+00 0
0.000000e+00 0.000000e+00 0
0.000000e+00 0.000000e+00 0
0.000000e+00 0.000000e+00 0
0.000000e+00 0.000000e+00 0
0.000000e+00 0.000000e+00 0
0.000000e+00 -5.000000e+01 0
0.000000e+00 -1.000028e+02 0
-4.130733e-02 -9.989313e+01 0
1.269432e-01 -9.980046e+01 0
3.422209e-01 -9.926769e+01 0
1.027142e+00 -4.935756e+01 0
0.000000e+00 0.000000e+00 0
0.000000e+00 0.000000e+00 0
0.000000e+00 0.000000e+00 0
0.000000e+00 0.000000e+00 0
0.000000e+00 0.000000e+00 0
0.000000e+00 0.000000e+00 0
0.000000e+00 0.000000e+00 0
0.000000e+00 0.000000e+00 0
0.000000e+00 0.000000e+00 0
0.000000e+00 0.000000e+00 0
0.000000e+00 0.000000e+00 0
0.000000e+00 0.000000e+00 0
0.000000e+00 0.000000e+00 0
0.000000e+00 0.000000e+00 0
0.000000e+00 -5.000000e+01 0
0.000000e+00 -1.000124e+02 0
-1.939055e-02 -9.997034e+01 0
8.219254e-02 -9.994578e+01 0
1.826427e-01 -9.971841e+01 0
8.202496e-01 -4.973057e+01 0
0.000000e+00 0.000000e+00 0
0.000000e+00 0.000000e+00 0
0.000000e+00 0.000000e+00 0
0.000000e+00 0.000000e+00 0
0.000000e+00 0.000000e+00 0
0.000000e+00 0.000000e+00 0
0.000000e+00 0.000000e+00 0
0.000000e+00 0.000000e+00 0
0.000000e+00 0.000000e+00 0
0.000000e+00 0.000000e+00 0
0.000000e+00 0.000000e+00 0
0.000000e+00 0.000000e+00 0
0.000000e+00 0.000000e+00 0
0.000000e+00 0.000000e+00 0
0.000000e+00 -5.000000e+01 0
0.000000e+00 -1.000173e+02 0
-1.262814e-02 -1.000100e+02 0
3.819112e-02 -1.000040e+02 0
7.021494e-02 -1.000113e+02 0
3.376236e-01 -5.000000e+01 0
0.000000e+00 0.000000e+00 0
0.000000e+00 0.000000e+00 0
0.000000e+00 0.000000e+00 0
0.000000e+00 0.000000e+00 0
0.000000e+00 0.000000e+00 0
0.000000e+00 0.000000e+00 0
0.000000e+00 0.000000e+00 0
0.000000e+00 0.000000e+00 0
0.000000e+00 0.000000e+00 0
0.000000e+00 0.000000e+00 0
0.000000e+00 0.000000e+00 0
0.000000e+00 0.000000e+00 0
0.000000e+00 0.000000e+00 0
0.000000e+00 0.000000e+00 0
0.000000e+00 -5.000000e+01 0
0.000000e+00 -1.000184e+02 0
-1.001845e-02 -1.000276e+02 0
1.296471e-02 -1.000293e+02 0
2.413762e-02 -1.000201e+02 0
2.413762e-02 -5.000000e+01 0
0.000000e+00 0.000000e+00 0
0.000000e+00 0.000000e+00 0
0.000000e+00 0.000000e+00 0
0.000000e+00 0.000000e+00 0
0.000000e+00 0.000000e+00 0
0.000000e+00 0.000000e+00 0
0.000000e+00 0.000000e+00 0
0.000000e+00 0.000000e+00 0
0.000000e+00 0.000000e+00 0
0.000000e+00 0.000000e+00 0
0.000000e+00 0.000000e+00 0
0.000000e+00 0.000000e+00 0
0.000000e+00 0.000000e+00 0
0.000000e+00 0.000000e+00 0
0.000000e+00 -5.000000e+01 0
0.000000e+00 -1.000172e+02 0
-8.474998e-03 -1.000331e+02 0
-4.944871e-04 -1.000384e+02 0
8.260486e-04 -1.000226e+02 0
8.260486e-04 -5.000000e+01 0
0.000000e+00 0.000000e+00 0
0.000000e+00 0.000000e+00 0
0.000000e+00 0.000000e+00 0
0.000000e+00 0.000000e+00 0
0.000000e+00 0.000000e+00 0
0.000000e+00 0.000000e+00 0
0.000000e+00 0.000000e+00 0
0.000000e+00 0.000000e+00 0
0.000000e+00 0.000000e+00 0
0.000000e+00 0.000000e+00 0
0.000000e+00 0.000000e+00 0
0.000000e+00 0.000000e+00 0
0.000000e+00 0.000000e+00 0
0.000000e+00 0.000000e+00 0
0.000000e+00 -5.000000e+01 0
0.000000e+00 -1.000148e+02 0
-7.181523e-03 -1.000320e+02 0
-7.350485e-03 -1.000386e+02 0
-1.144860e-02 -1.000214e+02 0
-1.144860e-02 -5.000000e+01 0
0.000000e+00 0.000000e+00 0
0.000000e+00 0.000000e+00 0
0.000000e+00 0.000000e+00 0
0.000000e+00 0.000000e+00 0
0.000000e+00 0.000000e+00 0
0.000000e+00 0.000000e+00 0
0.000000e+00 0.000000e+00 0
0.000000e+00 0.000000e+00 0
0.000000e+00 0.000000e+00 0
0.000000e+00 0.000000e+00 0
0.000000e+00 0.000000e+00 0
0.000000e+00 0.000000e+00 0
0.000000e+00 0.000000e+00 0
0.000000e+00 0.000000e+00 0
0.000000e+00 -5.000000e+01 0
0.000000e+00 -1.000118e+02 0
-5.817349e-03 -1.000275e+02 0
-1.027983e-02 -1.000341e+02 0
-1.709358e-02 -1.000185e+02 0
-1.709358e-02 -5.000000e+01 0
0.000000e+00 0.000000e+00 0
0.000000e+00 0.000000e+00 0
0.000000e+00 0.000000e+00 0
0.000000e+00 0.000000e+00 0
0.000000e+00 0.000000e+00 0
0.000000e+00 0.000000e+00 0
0.000000e+00 0.000000e+00 0
0.000000e+00 0.000000e+00 0
0.000000e+00 0.000000e+00 0
0.000000e+00 0.000000e+00 0
0.000000e+00 0.000000e+00 0
0.000000e+00 0.000000e+00 0
0.000000e+00 0.000000e+00 0
0.000000e+00 0.000000e+00 0
0.000000e+00 -5.000000e+01 0
0.000000e+00 -1.000088e+02 0
-4.238553e-03 -1.000215e+02 0
-1.080798e-02 -1.000273e+02 0
-1.891974e-02 -1.000146e+02 0
-1.891974e-02 -5.000000e+01 0
0.000000e+00 0.000000e+00 0
0.000000e+00 0.000000e+00 0
0.000000e+00 0.000000e+00 0
0.000000e+00 0.000000e+00 0
0.000000e+00 0.000000e+00 0
0.000000e+00 0.000000e+00 0
0.000000e+00 0.000000e+00 0
0.000000e+00 0.000000e+00 0
0.000000e+00 0.000000e+00 0
0.000000e+00 0.000000e+00 0
0.000000e+00 0.000000e+00 0
0.000000e+00 0.000000e+00 0
0.000000e+00 0.000000e+00 0
0.000000e+00 0.000000e+00 0
0.000000e+00 -5.000000e+01 0
0.000000e+00 -1.000060e+02 0
-2.389441e-03 -1.000151e+02 0
-9.722724e-03 -1.000193e+02 0
-1.822004e-02 -1.000103e+02 0
-1.822004e-02 -5.000000e+01 0
0.000000e+00 0.000000e+00 0
0.000000e+00 0.000000e+00 0
0.000000e+00 0.000000e+00 0
0.000000e+00 0.000000e+00 0
0.000000e+00 0.000000e+00 0
0.000000e+00 0.000000e+00 0
0.000000e+00 0.000000e+00 0
0.000000e+00 0.000000e+00 0
0.000000e+00 0.000000e+00 0
0.000000e+00 0.000000e+00 0
0.000000e+00 0.000000e+00 0
0.000000e+00 0.000000e+00 0
0.000000e+00 0.000000e+00 0
0.000000e+00 0.000000e+00 0
0.000000e+00 -5.000000e+01 0
0.000000e+00 -1.000037e+02 0
-3.626032e-04 -1.000090e+02 0
-7.392868e-03 -1.000113e+02 0
-1.540022e-02 -1.000060e+02 0
-1.540022e-02 -5.000000e+01 0
0.000000e+00 0.000000e+00 0
0.000000e+00 0.000000e+00 0
0.000000e+00 0.000000e+00 0
0.000000e+00 0.000000e+00 0
0.000000e+00 0.000000e+00 0
0.000000e+00 0.000000e+00 0
0.000000e+00 0.000000e+00 0
0.000000e+00 0.000000e+00 0
0.000000e+00 0.000000e+00 0
0.000000e+00 0.000000e+00 0
0.000000e+00 0.000000e+00 0
0.000000e+00 0.000000e+00 0
0.000000e+00 0.000000e+00 0
0.000000e+00 0.000000e+00 0
0.000000e+00 -5.000000e+01 0
0.000000e+00 -1.000018e+02 0
1.220790e-03 -1.000037e+02 0
-4.037383e-03 -1.000042e+02 0
-1.000522e-02 -1.000022e+02 0
-1.000522e-02 -5.000000e+01 0
0.000000e+00 0.000000e+00 0
0.000000e+00 0.000000e+00 0
0.000000e+00 0.000000e+00 0
0.000000e+00 0.000000e+00 0
0.000000e+00 0.000000e+00 0
0.000000e+00 0.000000e+00 0
0.000000e+00 0.000000e+00 0
0.000000e+00 0.000000e+00 0
0.000000e+00 0.000000e+00 0
0.000000e+00 0.000000e+00 0
0.000000e+00 0.000000e+00 0
0.000000e+00 0.000000e+00 0
0.000000e+00 0.000000e+00 0
0.000000e+00 0.000000e+00 0
0.000000e+00 -5.000000e+01 0
0.000000e+00 -1.000000e+02 0
7.283515e-18 -1.000000e+02 0
-8.952654e-18 -1.000000e+02 0
-2.708289e-17 -1.000000e+02 0
-2.731318e-17 -5.000000e+01 0
0.000000e+00 0.000000e+00 0
0.000000e+00 0.000000e+00 0
0.000000e+00 0.000000e+00 0
0.000000e+00 0.000000e+00 0
0.000000e+00 0.000000e+00 0
0.000000e+00 0.000000e+00 0
0.000000e+00 0.000000e+00 0
</DataArray>
<DataArray Name="Type and Neighbourhood" type="Float64" format="ascii" NumberOfComponents="3">
0.000000e+00 0.000000e+00 0
0.000000e+00 0.000000e+00 0
0.000000e+00 0.000000e+00 0
0.000000e+00 0.000000e+00 0
0.000000e+00 0.000000e+00 0
0.000000e+00 0.000000e+00 0
0.000000e+00 0.000000e+00 0
0.000000e+00 0.000000e+00 0
0.000000e+00 0.000000e+00 0
0.000000e+00 0.000000e+00 0
0.000000e+00 0.000000e+00 0