<?xml version="1.0"?>
<VTKFile type="StructuredGrid">
<StructuredGrid WholeExtent="0 19 0 33 0 0 ">
<Piece Extent="0 19 0 33 0 0 ">
<Points>
<DataArray type="Float64" format="ascii" NumberOfComponents="3">
0.000000e+00 0.000000e+00 0.000000e+00
1.052632e-01 0.000000e+00 0.000000e+00
2.105263e-01 0.000000e+00 0.000000e+00
3.157895e-01 0.000000e+00 0.000000e+00
4.210526e-01 0.000000e+00 0.000000e+00
5.263158e-01 0.000000e+00 0.000000e+00
6.315789e-01 0.000000e+00 0.000000e+00
7.368421e-01 0.000000e+00 0.000000e+00
8.421053e-01 0.000000e+00 0.000000e+00
9.473684e-01 0.000000e+00 0.000000e+00
1.052632e+00 0.000000e+00 0.000000e+00
1.157895e+00 0.000000e+00 0.000000e+00
1.263158e+00 0.000000e+00 0.000000e+00
1.368421e+00 0.000000e+00 0.000000e+00
1.473684e+00 0.000000e+00 0.000000e+00
1.578947e+00 0.000000e+00 0.000000e+00
1.684211e+00 0.000000e+00 0.000000e+00
1.789474e+00 0.000000e+00 0.000000e+00
1.894737e+00 0.000000e+00 0.000000e+00
2.000000e+00 0.000000e+00 0.000000e+00
0.000000e+00 1.060606e-01 0.000000e+00
1.052632e-01 1.060606e-01 0.000000e+00
2.105263e-01 1.060606e-01 0.000000e+00
3.157895e-01 1.060606e-01 0.000000e+00
4.210526e-01 1.060606e-01 0.000000e+00
5.263158e-01 1.060606e-01 0.000000e+00
6.315789e-01 1.060606e-01 0.000000e+00
7.368421e-01 1.060606e-01 0.000000e+00
8.421053e-01 1.060606e-01 0.000000e+00
9.473684e-01 1.060606e-01 0.000000e+00
1.052632e+00 1.060606e-01 0.000000e+00
1.157895e+00 1.060606e-01 0.000000e+00
1.263158e+00 1.060606e-01 0.000000e+00
1.368421e+00 1.060606e-01 0.000000e+00
1.473684e+00 1.060606e-01 0.000000e+00
1.578947e+00 1.060606e-01 0.000000e+00
1.684211e+00 1.060606e-01 0.000000e+00
1.789474e+00 1.060606e-01 0.000000e+00
1.894737e+00 1.060606e-01 0.000000e+00
2.000000e+00 1.060606e-01 0.000000e+00
0.000000e+00 2.121212e-01 0.000000e+00
1.052632e-01 2.121212e-01 0.000000e+00
2.105263e-01 2.121212e-01 0.000000e+00
3.157895e-01 2.121212e-01 0.000000e+00
4.210526e-01 2.121212e-01 0.000000e+00
5.263158e-01 2.121212e-01 0.000000e+00
6.315789e-01 2.121212e-01 0.000000e+00
7.368421e-01 2.121212e-01 0.000000e+00
8.421053e-01 2.121212e-01 0.000000e+00
9.473684e-01 2.121212e-01 0.000000e+00
1.052632e+00 2.121212e-01 0.000000e+00
1.157895e+00 2.121212e-01 0.000000e+00
1.263158e+00 2.121212e-01 0.000000e+00
1.368421e+00 2.121212e-01 0.000000e+00
1.473684e+00 2.121212e-01 0.000000e+00
1.578947e+00 2.121212e-01 0.000000e+00
1.684211e+00 2.121212e-01 0.000000e+00
1.789474e+00 2.121212e-01 0.000000e+00
1.894737e+00 2.121212e-01 0.000000e+00
2.000000e+00 2.121212e-01 0.000000e+00
0.000000e+00 3.181818e-01 0.000000e+00
1.052632e-01 3.181818e-01 0.000000e+00
2.105263e-01 3.181818e-01 0.000000e+00
3.157895e-01 3.181818e-01 0.000000e+00
4.210526e-01 3.181818e-01 0.000000e+00
5.263158e-01 3.181818e-01 0.000000e+00
6.315789e-01 3.181818e-01 0.000000e+00
7.368421e-01 3.181818e-01 0.000000e+00
8.421053e-01 3.181818e-01 0.000000e+00
9.473684e-01 3.181818e-01 0.000000e+00
1.052632e+00 3.181818e-01 0.000000e+00
1.157895e+00 3.181818e-01 0.000000e+00
1.263158e+00 3.181818e-01 0.000000e+00
1.368421e+00 3.181818e-01 0.000000e+00
1.473684e+00 3.181818e-01 0.000000e+00
1.578947e+00 3.181818e-01 0.000000e+00
1.684211e+00 3.181818e-01 0.000000e+00
1.789474e+00 3.181818e-01 0.000000e+00
1.894737e+00 3.181818e-01 0.000000e+00
2.000000e+00 3.181818e-01 0.000000e+00
0.000000e+00 4.242424e-01 0.000000e+00
1.052632e-01 4.242424e-01 0.000000e+00
2.105263e-01 4.242424e-01 0.000000e+00
3.157895e-01 4.242424e-01 0.000000e+00
4.210526e-01 4.242424e-01 0.000000e+00
5.263158e-01 4.242424e-01 0.000000e+00
6.315789e-01 4.242424e-01 0.000000e+00
7.368421e-01 4.242424e-01 0.000000e+00
8.421053e-01 4.242424e-01 0.000000e+00
9.473684e-01 4.242424e-01 0.000000e+00
1.052632e+00 4.242424e-01 0.000000e+00
1.157895e+00 4.242424e-01 0.000000e+00
1.263158e+00 4.242424e-01 0.000000e+00
1.368421e+00 4.242424e-01 0.000000e+00
1.473684e+00 4.242424e-01 0.000000e+00
1.578947e+00 4.242424e-01 0.000000e+00
1.684211e+00 4.242424e-01 0.000000e+00
1.789474e+00 4.242424e-01 0.000000e+00
1.894737e+00 4.242424e-01 0.000000e+00
2.000000e+00 4.242424e-01 0.000000e+00
0.000000e+00 5.303030e-01 0.000000e+00
1.052632e-01 5.303030e-01 0.000000e+00
2.105263e-01 5.303030e-01 0.000000e+00
3.157895e-01 5.303030e-01 0.000000e+00
4.210526e-01 5.303030e-01 0.000000e+00
5.263158e-01 5.303030e-01 0.000000e+00
6.315789e-01 5.303030e-01 0.000000e+00
7.368421e-01 5.303030e-01 0.000000e+00
8.421053e-01 5.303030e-01 0.000000e+00
9.473684e-01 5.303030e-01 0.000000e+00
1.052632e+00 5.303030e-01 0.000000e+00
1.157895e+00 5.303030e-01 0.000000e+00
1.263158e+00 5.303030e-01 0.000000e+00
1.368421e+00 5.303030e-01 0.000000e+00
1.473684e+00 5.303030e-01 0.000000e+00
1.578947e+00 5.303030e-01 0.000000e+00
1.684211e+00 5.303030e-01 0.000000e+00
1.789474e+00 5.303030e-01 0.000000e+00
1.894737e+00 5.303030e-01 0.000000e+00
2.000000e+00 5.303030e-01 0.000000e+00
0.000000e+00 6.363636e-01 0.000000e+00
1.052632e-01 6.363636e-01 0.000000e+00
2.105263e-01 6.363636e-01 0.000000e+00
3.157895e-01 6.363636e-01 0.000000e+00
4.210526e-01 6.363636e-01 0.000000e+00
5.263158e-01 6.363636e-01 0.000000e+00
6.315789e-01 6.363636e-01 0.000000e+00
7.368421e-01 6.363636e-01 0.000000e+00
8.421053e-01 6.363636e-01 0.000000e+00
9.473684e-01 6.363636e-01 0.000000e+00
1.052632e+00 6.363636e-01 0.000000e+00
1.157895e+00 6.363636e-01 0.000000e+00
1.263158e+00 6.363636e-01 0.000000e+00
1.368421e+00 6.363636e-01 0.000000e+00
1.473684e+00 6.363636e-01 0.000000e+00
1.578947e+00 6.363636e-01 0.000000e+00
1.684211e+00 6.363636e-01 0.000000e+00
1.789474e+00 6.363636e-01 0.000000e+00
1.894737e+00 6.363636e-01 0.000000e+00
2.000000e+00 6.363636e-01 0.000000e+00
0.000000e+00 7.424242e-01 0.000000e+00
1.052632e-01 7.424242e-01 0.000000e+00
2.105263e-01 7.424242e-01 0.000000e+00
3.157895e-01 7.424242e-01 0.000000e+00
4.210526e-01 7.424242e-01 0.000000e+00
5.263158e-01 7.424242e-01 0.000000e+00
6.315789e-01 7.424242e-01 0.000000e+00
7.368421e-01 7.424242e-01 0.000000e+00
8.421053e-01 7.424242e-01 0.000000e+00
9.473684e-01 7.424242e-01 0.000000e+00
1.052632e+00 7.424242e-01 0.000000e+00
1.157895e+00 7.424242e-01 0.000000e+00
1.263158e+00 7.424242e-01 0.000000e+00
1.368421e+00 7.424242e-01 0.000000e+00
1.473684e+00 7.424242e-01 0.000000e+00
1.578947e+00 7.424242e-01 0.000000e+00
1.684211e+00 7.424242e-01 0.000000e+00
1.789474e+00 7.424242e-01 0.000000e+00
1.894737e+00 7.424242e-01 0.000000e+00
2.000000e+00 7.424242e-01 0.000000e+00
0.000000e+00 8.484848e-01 0.000000e+00
1.052632e-01 8.484848e-01 0.000000e+00
2.105263e-01 8.484848e-01 0.000000e+00
3.157895e-01 8.484848e-01 0.000000e+00
4.210526e-01 8.484848e-01 0.000000e+00
5.263158e-01 8.484848e-01 0.000000e+00
6.315789e-01 8.484848e-01 0.000000e+00
7.368421e-01 8.484848e-01 0.000000e+00
8.421053e-01 8.484848e-01 0.000000e+00
9.473684e-01 8.484848e-01 0.000000e+00
1.052632e+00 8.484848e-01 0.000000e+00
1.157895e+00 8.484848e-01 0.000000e+00
1.263158e+00 8.484848e-01 0.000000e+00
1.368421e+00 8.484848e-01 0.000000e+00
1.473684e+00 8.484848e-01 0.000000e+00
1.578947e+00 8.484848e-01 0.000000e+00
1.684211e+00 8.484848e-01 0.000000e+00
1.789474e+00 8.484848e-01 0.000000e+00
1.894737e+00 8.484848e-01 0.000000e+00
2.000000e+00 8.484848e-01 0.000000e+00
0.000000e+00 9.545455e-01 0.000000e+00
1.052632e-01 9.545455e-01 0.000000e+00
2.105263e-01 9.545455e-01 0.000000e+00
3.157895e-01 9.545455e-01 0.000000e+00
4.210526e-01 9.545455e-01 0.000000e+00
5.263158e-01 9.545455e-01 0.000000e+00
6.315789e-01 9.545455e-01 0.000000e+00
7.368421e-01 9.545455e-01 0.000000e+00
8.421053e-01 9.545455e-01 0.000000e+00
9.473684e-01 9.545455e-01 0.000000e+00
1.052632e+00 9.545455e-01 0.000000e+00
1.157895e+00 9.545455e-01 0.000000e+00
1.263158e+00 9.545455e-01 0.000000e+00
1.368421e+00 9.545455e-01 0.000000e+00
1.473684e+00 9.545455e-01 0.000000e+00
1.578947e+00 9.545455e-01 0.000000e+00
1.684211e+00 9.545455e-01 0.000000e+00
1.789474e+00 9.545455e-01 0.000000e+00
1.894737e+00 9.545455e-01 0.000000e+00
2.000000e+00 9.545455e-01 0.000000e+00
0.000000e+00 1.060606e+00 0.000000e+00
1.052632e-01 1.060606e+00 0.000000e+00
2.105263e-01 1.060606e+00 0.000000e+00
3.157895e-01 1.060606e+00 0.000000e+00
4.210526e-01 1.060606e+00 0.000000e+00
5.263158e-01 1.060606e+00 0.000000e+00
6.315789e-01 1.060606e+00 0.000000e+00
7.368421e-01 1.060606e+00 0.000000e+00
8.421053e-01 1.060606e+00 0.000000e+00
9.473684e-01 1.060606e+00 0.000000e+00
1.052632e+00 1.060606e+00 0.000000e+00
1.157895e+00 1.060606e+00 0.000000e+00
1.263158e+00 1.060606e+00 0.000000e+00
1.368421e+00 1.060606e+00 0.000000e+00
1.473684e+00 1.060606e+00 0.000000e+00
1.578947e+00 1.060606e+00 0.000000e+00
1.684211e+00 1.060606e+00 0.000000e+00
1.789474e+00 1.060606e+00 0.000000e+00
1.894737e+00 1.060606e+00 0.000000e+00
2.000000e+00 1.060606e+00 0.000000e+00
0.000000e+00 1.166667e+00 0.000000e+00
1.052632e-01 1.166667e+00 0.000000e+00
2.105263e-01 1.166667e+00 0.000000e+00
3.157895e-01 1.166667e+00 0.000000e+00
4.210526e-01 1.166667e+00 0.000000e+00
5.263158e-01 1.166667e+00 0.000000e+00
6.315789e-01 1.166667e+00 0.000000e+00
7.368421e-01 1.166667e+00 0.000000e+00
8.421053e-01 1.166667e+00 0.000000e+00
9.473684e-01 1.166667e+00 0.000000e+00
1.052632e+00 1.166667e+00 0.000000e+00
1.157895e+00 1.166667e+00 0.000000e+00
1.263158e+00 1.166667e+00 0.000000e+00
1.368421e+00 1.166667e+00 0.000000e+00
1.473684e+00 1.166667e+00 0.000000e+00
1.578947e+00 1.166667e+00 0.000000e+00
1.684211e+00 1.166667e+00 0.000000e+00
1.789474e+00 1.166667e+00 0.000000e+00
1.894737e+00 1.166667e+00 0.000000e+00
2.000000e+00 1.166667e+00 0.000000e+00
0.000000e+00 1.272727e+00 0.000000e+00
1.052632e-01 1.272727e+00 0.000000e+00
2.105263e-01 1.272727e+00 0.000000e+00
3.157895e-01 1.272727e+00 0.000000e+00
4.210526e-01 1.272727e+00 0.000000e+00
5.263158e-01 1.272727e+00 0.000000e+00
6.315789e-01 1.272727e+00 0.000000e+00
7.368421e-01 1.272727e+00 0.000000e+00
8.421053e-01 1.272727e+00 0.000000e+00
9.473684e-01 1.272727e+00 0.000000e+00
1.052632e+00 1.272727e+00 0.000000e+00
[...]
<PointData>
<DataArray Name="Velocity" type="Float64" format="ascii" NumberOfComponents="3">
0.000000e+00 0.000000e+00 0
0.000000e+00 0.000000e+00 0
0.000000e+00 0.000000e+00 0
0.000000e+00 0.000000e+00 0
0.000000e+00 0.000000e+00 0
0.000000e+00 0.000000e+00 0
0.000000e+00 0.000000e+00 0
0.000000e+00 0.000000e+00 0
0.000000e+00 0.000000e+00 0
0.000000e+00 0.000000e+00 0
0.000000e+00 0.000000e+00 0
1.920133e-16 0.000000e+00 0
0.000000e+00 0.000000e+00 0
0.000000e+00 0.000000e+00 0
0.000000e+00 0.000000e+00 0
-5.128535e-17 0.000000e+00 0
0.000000e+00 0.000000e+00 0
0.000000e+00 0.000000e+00 0
0.000000e+00 0.000000e+00 0
0.000000e+00 0.000000e+00 0
0.000000e+00 0.000000e+00 0
-1.914180e+01 2.613799e+01 0
-9.966429e+01 3.975847e+01 0
-1.135062e+02 1.901812e+01 0
-8.703011e+01 -3.944934e+01 0
-5.009041e+01 -6.954924e+01 0
-3.031511e+01 -2.778060e+01 0
-3.025979e+01 -1.117422e+01 0
-1.536748e+01 -1.213901e+01 0
-5.327787e+00 -9.797868e+00 0
5.763886e+00 -9.934298e+00 0
1.518022e+01 -9.551737e+00 0
2.637386e+01 -9.683306e+00 0
3.498633e+01 -6.485943e+00 0
3.921249e+01 -2.024726e+00 0
3.872555e+01 2.445906e+00 0
3.389656e+01 6.444127e+00 0
2.532985e+01 9.788939e+00 0
1.377217e+01 1.245219e+01 0
0.000000e+00 -2.859023e-14 0
0.000000e+00 0.000000e+00 0
-2.483224e+01 9.975356e+01 0
-3.368687e+01 5.188018e+01 0
-3.183312e+01 1.362048e+01 0
0.000000e+00 -3.277589e+01 0
-4.467010e+01 -5.312267e+01 0
-3.253094e+01 -2.040253e+01 0
-3.278377e+01 -1.506087e+01 0
-1.833908e+01 -2.512088e+01 0
-5.323647e+00 -2.129145e+01 0
5.989019e+00 -2.066337e+01 0
1.726213e+01 -2.076611e+01 0
2.954294e+01 -1.995616e+01 0
3.829039e+01 -1.293589e+01 0
4.235597e+01 -3.767551e+00 0
4.145614e+01 5.356207e+00 0
3.605732e+01 1.349719e+01 0
2.678466e+01 2.027685e+01 0
1.445025e+01 2.552174e+01 0
0.000000e+00 -5.966656e-14 0
0.000000e+00 0.000000e+00 0
-7.354611e+00 1.012817e+02 0
-3.517917e+00 3.439393e+01 0
0.000000e+00 3.564418e-15 0
0.000000e+00 -3.277589e+01 0
-3.692451e+01 -6.978537e+01 0
-3.415956e+01 -3.983308e+01 0
-3.337694e+01 -2.547361e+01 0
-1.894636e+01 -3.980716e+01 0
-4.953977e+00 -3.431027e+01 0
7.160131e+00 -3.269118e+01 0
1.955177e+01 -3.328410e+01 0
3.280833e+01 -3.087087e+01 0
4.160293e+01 -1.939605e+01 0
4.559506e+01 -5.214454e+00 0
4.425560e+01 8.792273e+00 0
3.836324e+01 2.122675e+01 0
2.834039e+01 3.155970e+01 0
1.519209e+01 3.943976e+01 0
0.000000e+00 -8.949984e-14 0
0.000000e+00 0.000000e+00 0
-2.237151e+00 1.029584e+02 0
-2.237151e+00 3.439393e+01 0
0.000000e+00 0.000000e+00 0
0.000000e+00 0.000000e+00 0
0.000000e+00 -5.181365e+01 0
-2.565228e+01 -5.265632e+01 0
-2.989515e+01 -3.038770e+01 0
-1.691714e+01 -5.375917e+01 0
-3.442529e+00 -4.759571e+01 0
8.727881e+00 -4.535476e+01 0
2.147358e+01 -4.660861e+01 0
3.527551e+01 -4.217437e+01 0
4.378867e+01 -2.581950e+01 0
4.815295e+01 -6.440319e+00 0
4.655422e+01 1.264282e+01 0
4.122663e+01 2.953297e+01 0
3.057349e+01 4.362354e+01 0
1.627343e+01 5.407683e+01 0
0.000000e+00 -1.243053e-13 0
0.000000e+00 0.000000e+00 0
-8.661736e-01 1.035358e+02 0
-8.661736e-01 3.439393e+01 0
0.000000e+00 0.000000e+00 0
0.000000e+00 0.000000e+00 0
0.000000e+00 -5.181365e+01 0
-1.966785e+01 -5.033949e+01 0
-2.358197e+01 -3.425218e+01 0
-1.283848e+01 -6.646018e+01 0
-1.063569e+00 -6.014956e+01 0
1.022981e+01 -5.779605e+01 0
2.243701e+01 -6.003284e+01 0
3.595296e+01 -5.335501e+01 0
4.338116e+01 -3.237105e+01 0
4.993631e+01 -8.000964e+00 0
4.629341e+01 1.577107e+01 0
4.271339e+01 3.732856e+01 0
3.156269e+01 5.670194e+01 0
1.668374e+01 7.024486e+01 0
0.000000e+00 -1.591108e-13 0
0.000000e+00 0.000000e+00 0
-4.102471e-01 1.038312e+02 0
-4.102471e-01 3.439393e+01 0
0.000000e+00 0.000000e+00 0
0.000000e+00 0.000000e+00 0
0.000000e+00 -5.181365e+01 0
-1.483731e+01 -4.865534e+01 0
-1.417625e+01 -3.721160e+01 0
-7.398138e+00 -7.644816e+01 0
1.617878e+00 -7.083876e+01 0
1.115182e+01 -6.903337e+01 0
2.185644e+01 -7.252663e+01 0
3.367714e+01 -6.327719e+01 0
3.714398e+01 -3.990879e+01 0
4.204831e+01 -9.374631e+00 0
2.250996e+01 1.988514e+01 0
3.353007e+01 4.433997e+01 0
2.662559e+01 6.985038e+01 0
1.451583e+01 8.587863e+01 0
0.000000e+00 -1.988885e-13 0
0.000000e+00 0.000000e+00 0
2.908148e-02 1.039491e+02 0
2.908148e-02 3.439393e+01 0
0.000000e+00 0.000000e+00 0
0.000000e+00 0.000000e+00 0
0.000000e+00 -5.181365e+01 0
-6.706307e+00 -5.093643e+01 0
-5.547440e+00 -4.167857e+01 0
-2.472777e+00 -8.237396e+01 0
3.714537e+00 -7.884005e+01 0
1.110765e+01 -7.818793e+01 0
1.962009e+01 -8.272881e+01 0
2.835195e+01 -6.875837e+01 0
2.200614e+01 -4.080564e+01 0
1.666264e+01 -1.561003e+01 0
-5.392811e-02 9.376319e+00 0
1.226260e+01 4.058525e+01 0
2.058585e+01 7.588729e+01 0
1.081179e+01 9.707216e+01 0
0.000000e+00 -2.187774e-13 0
0.000000e+00 0.000000e+00 0
5.894808e-01 1.038019e+02 0
5.894808e-01 3.439393e+01 0
0.000000e+00 0.000000e+00 0
0.000000e+00 0.000000e+00 0
0.000000e+00 0.000000e+00 0
0.000000e+00 0.000000e+00 0
-2.462751e+00 -4.344444e+01 0
1.053744e-01 -8.575688e+01 0
4.576072e+00 -8.452207e+01 0
1.008566e+01 -8.505942e+01 0
1.638230e+01 -8.990157e+01 0
2.215203e+01 -6.568132e+01 0
-2.854084e+00 -2.813093e+01 0
-5.392811e-02 1.106822e+00 0
-5.392811e-02 1.998454e+01 0
-5.392811e-02 3.111619e+01 0
7.203844e+00 7.147280e+01 0
4.930211e+00 1.066204e+02 0
0.000000e+00 -2.287218e-13 0
0.000000e+00 0.000000e+00 0
1.137820e+00 1.033552e+02 0
1.137820e+00 3.439393e+01 0
0.000000e+00 0.000000e+00 0
0.000000e+00 0.000000e+00 0
0.000000e+00 0.000000e+00 0
0.000000e+00 -5.000000e-05 0
-1.324885e+00 -4.510017e+01 0
1.024962e+00 -8.942285e+01 0
4.403742e+00 -8.889594e+01 0
8.375332e+00 -9.008360e+01 0
1.266164e+01 -9.488659e+01 0
1.550237e+01 -4.937626e+01 0
-2.987047e+00 -5.000000e-05 0
0.000000e+00 0.000000e+00 0
0.000000e+00 0.000000e+00 0
0.000000e+00 2.554332e+01 0
-5.260633e+00 7.267398e+01 0
-2.670936e-01 1.044920e+02 0
0.000000e+00 -2.486107e-13 0
0.000000e+00 0.000000e+00 0
1.559469e+00 1.026554e+02 0
1.559469e+00 3.439393e+01 0
0.000000e+00 0.000000e+00 0
0.000000e+00 0.000000e+00 0
0.000000e+00 0.000000e+00 0
0.000000e+00 -5.000000e-05 0
-3.569087e-01 -4.582536e+01 0
1.140973e+00 -9.154213e+01 0
3.638051e+00 -9.192813e+01 0
6.415140e+00 -9.337988e+01 0
9.067181e+00 -9.708259e+01 0
9.718695e+00 -4.991408e+01 0
9.718695e+00 -5.000000e-05 0
0.000000e+00 0.000000e+00 0
0.000000e+00 0.000000e+00 0
0.000000e+00 2.554332e+01 0
-6.079837e+00 7.060257e+01 0
-1.718723e+00 1.016776e+02 0
0.000000e+00 -2.386662e-13 0
0.000000e+00 0.000000e+00 0
1.852585e+00 1.017839e+02 0
1.852585e+00 3.439393e+01 0
0.000000e+00 0.000000e+00 0
0.000000e+00 0.000000e+00 0
0.000000e+00 0.000000e+00 0
0.000000e+00 -5.000000e-05 0
-1.926346e+00 -4.663908e+01 0
4.061537e-01 -9.347775e+01 0
2.597747e+00 -9.421006e+01 0
4.617686e+00 -9.555386e+01 0
6.275022e+00 -9.821518e+01 0
6.378288e+00 -5.003271e+01 0
6.378288e+00 -5.000000e-05 0
0.000000e+00 0.000000e+00 0
-4.983745e-15 -7.327472e-19 0
-2.362610e+00 2.600547e+01 0
-5.264927e+00 6.899354e+01 0
-1.678892e+00 9.861769e+01 0
0.000000e+00 -2.386662e-13 0
0.000000e+00 0.000000e+00 0
2.105609e+00 1.007888e+02 0
2.105609e+00 3.439393e+01 0
0.000000e+00 0.000000e+00 0
0.000000e+00 0.000000e+00 0
0.000000e+00 0.000000e+00 0
0.000000e+00 -5.000000e-05 0
-2.277622e+00 -4.815258e+01 0
-6.142145e-02 -9.607754e+01 0
1.736994e+00 -9.617157e+01 0
3.203103e+00 -9.708501e+01 0
4.275429e+00 -9.885654e+01 0
4.212029e+00 -5.001813e+01 0
4.212029e+00 -5.000000e-05 0
0.000000e+00 0.000000e+00 0
-1.056212e-14 -3.500000e-04 0
-5.007111e+00 2.598356e+01 0
-4.066366e+00 6.748528e+01 0
-1.092834e+00 9.642815e+01 0
0.000000e+00 -2.287218e-13 0
0.000000e+00 0.000000e+00 0
2.238956e+00 9.966232e+01 0
2.238956e+00 3.439393e+01 0
0.000000e+00 0.000000e+00 0
0.000000e+00 0.000000e+00 0
0.000000e+00 0.000000e+00 0
0.000000e+00 -5.000000e-05 0
-8.479312e-01 -4.883957e+01 0
8.071839e-02 -9.749028e+01 0
1.214557e+00 -9.749932e+01 0
2.194098e+00 -9.811152e+01 0
2.882070e+00 -9.923175e+01 0
2.780781e+00 -4.996883e+01 0
2.780781e+00 -5.000000e-05 0
0.000000e+00 0.000000e+00 0
-5.578374e-15 -3.500000e-04 0
-2.644501e+00 2.534263e+01 0
-2.780577e+00 6.533499e+01 0
-3.987178e-01 9.452052e+01 0
0.000000e+00 -2.386662e-13 0
0.000000e+00 0.000000e+00 0
1.563099e+00 9.853289e+01 0
2.347108e+01 3.439393e+01 0
0.000000e+00 0.000000e+00 0
0.000000e+00 0.000000e+00 0
0.000000e+00 0.000000e+00 0
0.000000e+00 -5.000000e-05 0
-3.215183e-01 -4.907801e+01 0
1.534052e-01 -9.814540e+01 0
8.486266e-01 -9.830096e+01 0
1.482791e+00 -9.876516e+01 0
1.919287e+00 -9.944766e+01 0
1.822551e+00 -4.991607e+01 0
1.822551e+00 -5.000000e-05 0
0.000000e+00 0.000000e+00 0
0.000000e+00 0.000000e+00 0
0.000000e+00 2.554332e+01 0
-1.193013e+00 6.472914e+01 0
1.811268e-01 9.371086e+01 0
0.000000e+00 -2.287218e-13 0
0.000000e+00 0.000000e+00 0
5.118723e-01 7.601343e+01 0
2.241985e+01 1.231999e+01 0
0.000000e+00 0.000000e+00 0
0.000000e+00 0.000000e+00 0
0.000000e+00 0.000000e+00 0
0.000000e+00 -5.000000e-05 0
-4.027564e-01 -4.931567e+01 0
5.087410e-02 -9.866687e+01 0
5.446599e-01 -9.883877e+01 0
9.721627e-01 -9.919030e+01 0
1.253858e+00 -9.957408e+01 0
1.177465e+00 -4.987136e+01 0
1.177465e+00 -5.000000e-05 0
0.000000e+00 0.000000e+00 0
0.000000e+00 0.000000e+00 0
0.000000e+00 2.554332e+01 0
-1.214578e+00 6.432039e+01 0
1.055803e-01 9.348808e+01 0
0.000000e+00 -2.287218e-13 0
0.000000e+00 0.000000e+00 0
-1.466925e-01 7.594319e+01 0
-1.466925e-01 1.231999e+01 0
0.000000e+00 0.000000e+00 0
0.000000e+00 0.000000e+00 0
0.000000e+00 0.000000e+00 0
0.000000e+00 -5.000000e-05 0
-5.057985e-01 -4.952785e+01 0
-7.266340e-02 -9.909277e+01 0
3.078576e-01 -9.922922e+01 0
6.090298e-01 -9.947973e+01 0
7.979443e-01 -9.965452e+01 0
7.512406e-01 -4.983910e+01 0
7.512406e-01 -5.000000e-05 0
0.000000e+00 0.000000e+00 0
0.000000e+00 0.000000e+00 0
0.000000e+00 2.554332e+01 0
-2.768269e+00 6.359462e+01 0
-6.403905e-01 9.268272e+01 0
0.000000e+00 -2.287218e-13 0
0.000000e+00 0.000000e+00 0
-5.754189e-01 7.616123e+01 0
-5.754189e-01 1.231999e+01 0
0.000000e+00 0.000000e+00 0
0.000000e+00 0.000000e+00 0
0.000000e+00 0.000000e+00 0
0.000000e+00 -5.000000e-05 0
-3.674773e-01 -4.975187e+01 0
-1.123239e-01 -9.948647e+01 0
1.514589e-01 -9.952563e+01 0
3.593846e-01 -9.968409e+01 0
4.872925e-01 -9.971737e+01 0
4.753096e-01 -4.982430e+01 0
2.921633e-01 -5.000000e-05 0
0.000000e+00 0.000000e+00 0
0.000000e+00 0.000000e+00 0
0.000000e+00 2.554332e+01 0
-3.082674e+00 6.238122e+01 0
-9.478833e-01 9.090366e+01 0
0.000000e+00 -2.187774e-13 0
0.000000e+00 0.000000e+00 0
-7.350800e-01 7.652297e+01 0
-7.350800e-01 1.231999e+01 0
0.000000e+00 0.000000e+00 0
0.000000e+00 0.000000e+00 0
0.000000e+00 0.000000e+00 0
0.000000e+00 -5.000000e-05 0
-3.356094e-01 -4.978580e+01 0
-1.339841e-01 -9.961649e+01 0
5.176334e-02 -9.970451e+01 0
1.908134e-01 -9.981811e+01 0
2.669958e-01 -9.977132e+01 0
2.858897e-01 -4.982698e+01 0
0.000000e+00 0.000000e+00 0
0.000000e+00 0.000000e+00 0
0.000000e+00 0.000000e+00 0
0.000000e+00 2.554332e+01 0
-1.223265e+00 6.161590e+01 0
9.781377e-02 8.974893e+01 0
0.000000e+00 -2.287218e-13 0
0.000000e+00 0.000000e+00 0
-6.914600e-01 7.690188e+01 0
-6.914600e-01 1.231999e+01 0
0.000000e+00 0.000000e+00 0
0.000000e+00 0.000000e+00 0
0.000000e+00 0.000000e+00 0
0.000000e+00 -5.000000e-05 0
-2.960253e-01 -4.995207e+01 0
-1.284902e-01 -9.987382e+01 0
-3.220613e-04 -9.985289e+01 0
8.626166e-02 -9.990096e+01 0
1.160183e-01 -9.981316e+01 0
1.726660e-01 -4.984329e+01 0
6.992260e-02 0.000000e+00 0
0.000000e+00 0.000000e+00 0
0.000000e+00 0.000000e+00 0
0.000000e+00 0.000000e+00 0
0.000000e+00 3.513192e+01 0
1.189822e+00 8.928234e+01 0
0.000000e+00 -2.287218e-13 0
0.000000e+00 0.000000e+00 0
-5.388574e-01 7.721967e+01 0
-5.388574e-01 1.231999e+01 0
0.000000e+00 0.000000e+00 0
0.000000e+00 0.000000e+00 0
0.000000e+00 0.000000e+00 0
0.000000e+00 -5.000000e-05 0
-9.805044e-02 -4.995231e+01 0
-7.244086e-02 -9.991214e+01 0
-9.891781e-03 -9.992089e+01 0
3.981315e-02 -9.993533e+01 0
5.055888e-02 -9.985889e+01 0
1.478007e-01 -4.988722e+01 0
1.478007e-01 -2.650000e-03 0
0.000000e+00 0.000000e+00 0
0.000000e+00 0.000000e+00 0
0.000000e+00 0.000000e+00 0
0.000000e+00 3.513192e+01 0
1.685253e+00 8.997440e+01 0
0.000000e+00 -2.386662e-13 0
0.000000e+00 0.000000e+00 0
-3.561917e-01 7.744482e+01 0
-3.561917e-01 1.231999e+01 0
0.000000e+00 0.000000e+00 0
0.000000e+00 0.000000e+00 0
0.000000e+00 0.000000e+00 0
0.000000e+00 -5.000000e-05 0
-9.138749e-02 -4.997699e+01 0
-4.952235e-02 -9.996177e+01 0
-6.107306e-03 -9.996599e+01 0
3.328327e-02 -9.996187e+01 0
6.221838e-02 -9.992248e+01 0
2.037525e-01 -4.994443e+01 0
2.037525e-01 -2.650000e-03 0
0.000000e+00 0.000000e+00 0
0.000000e+00 0.000000e+00 0
0.000000e+00 0.000000e+00 0
0.000000e+00 3.513192e+01 0
1.710167e+00 9.095236e+01 0
0.000000e+00 -2.287218e-13 0
0.000000e+00 0.000000e+00 0
-1.952582e-01 7.757856e+01 0
-1.952582e-01 1.231999e+01 0
0.000000e+00 0.000000e+00 0
0.000000e+00 0.000000e+00 0
0.000000e+00 0.000000e+00 0
0.000000e+00 -5.000000e-05 0
-3.641600e-02 -4.999393e+01 0
-2.954801e-02 -9.999751e+01 0
2.045958e-03 -1.000043e+02 0
3.746276e-02 -1.000042e+02 0
8.491077e-02 -1.000307e+02 0
2.239801e-01 -5.002982e+01 0
2.239801e-01 -2.650000e-03 0
0.000000e+00 0.000000e+00 0
0.000000e+00 0.000000e+00 0
0.000000e+00 0.000000e+00 0
0.000000e+00 3.513192e+01 0
1.423584e+00 9.168719e+01 0
0.000000e+00 -2.287218e-13 0
0.000000e+00 0.000000e+00 0
-8.639994e-02 7.764156e+01 0
-8.639994e-02 1.231999e+01 0
0.000000e+00 0.000000e+00 0
0.000000e+00 0.000000e+00 0
0.000000e+00 0.000000e+00 0
0.000000e+00 0.000000e+00 0
0.000000e+00 -4.999104e+01 0
-1.002729e-02 -1.000076e+02 0
6.442511e-03 -1.000334e+02 0
2.922600e-02 -1.000454e+02 0
6.063042e-02 -1.001104e+02 0
1.096182e-01 -5.008455e+01 0
9.810571e-02 -2.650000e-03 0
0.000000e+00 0.000000e+00 0
0.000000e+00 0.000000e+00 0
0.000000e+00 0.000000e+00 0
0.000000e+00 3.513192e+01 0
1.992985e+00 9.238075e+01 0
0.000000e+00 -2.486107e-13 0
0.000000e+00 0.000000e+00 0
-3.086500e-02 7.766562e+01 0
-3.086500e-02 1.231999e+01 0
0.000000e+00 0.000000e+00 0
0.000000e+00 0.000000e+00 0
0.000000e+00 0.000000e+00 0
0.000000e+00 0.000000e+00 0
0.000000e+00 -5.000000e+01 0
0.000000e+00 -1.000201e+02 0
4.489542e-03 -1.000438e+02 0
1.189632e-02 -1.000588e+02 0
1.522950e-02 -1.001117e+02 0
-7.559644e-03 -5.007653e+01 0
0.000000e+00 0.000000e+00 0
0.000000e+00 0.000000e+00 0
0.000000e+00 0.000000e+00 0
0.000000e+00 0.000000e+00 0
0.000000e+00 3.513192e+01 0
1.299839e+00 9.368895e+01 0
0.000000e+00 -2.486107e-13 0
0.000000e+00 0.000000e+00 0
-6.990724e-03 7.767266e+01 0
-6.990724e-03 1.231999e+01 0
0.000000e+00 0.000000e+00 0
0.000000e+00 0.000000e+00 0
0.000000e+00 0.000000e+00 0
0.000000e+00 0.000000e+00 0
0.000000e+00 -5.000000e+01 0
0.000000e+00 -1.000211e+02 0
-2.861785e-04 -1.000454e+02 0
-1.598276e-03 -1.000562e+02 0
-9.065394e-03 -1.000908e+02 0
-5.322982e-02 -5.005894e+01 0
0.000000e+00 0.000000e+00 0
0.000000e+00 0.000000e+00 0
0.000000e+00 0.000000e+00 0
0.000000e+00 0.000000e+00 0
0.000000e+00 0.000000e+00 0
0.000000e+00 5.885470e+01 0
0.000000e+00 -2.486107e-13 0
0.000000e+00 -3.828487e-04 0
0.000000e+00 7.767266e+01 0
0.000000e+00 1.231999e+01 0
0.000000e+00 0.000000e+00 0
0.000000e+00 0.000000e+00 0
0.000000e+00 0.000000e+00 0
0.000000e+00 0.000000e+00 0
0.000000e+00 -5.000000e+01 0
0.000000e+00 -1.000198e+02 0
-3.882708e-03 -1.000421e+02 0
-8.988606e-03 -1.000499e+02 0
-1.733645e-02 -1.000596e+02 0
-6.363199e-02 -5.003203e+01 0
0.000000e+00 0.000000e+00 0
0.000000e+00 0.000000e+00 0
0.000000e+00 0.000000e+00 0
0.000000e+00 0.000000e+00 0
0.000000e+00 0.000000e+00 0
0.000000e+00 5.885470e+01 0
0.000000e+00 -2.486107e-13 0
0.000000e+00 0.000000e+00 0
0.000000e+00 0.000000e+00 0
0.000000e+00 0.000000e+00 0
0.000000e+00 0.000000e+00 0
0.000000e+00 0.000000e+00 0
0.000000e+00 0.000000e+00 0
0.000000e+00 0.000000e+00 0
0.000000e+00 -5.000000e+01 0
0.000000e+00 -1.000171e+02 0
-6.073757e-03 -1.000363e+02 0
-1.300039e-02 -1.000426e+02 0
-2.155699e-02 -1.000357e+02 0
-4.038785e-02 -5.001229e+01 0
0.000000e+00 0.000000e+00 0
0.000000e+00 0.000000e+00 0
0.000000e+00 0.000000e+00 0
0.000000e+00 0.000000e+00 0
0.000000e+00 0.000000e+00 0
0.000000e+00 5.885470e+01 0
0.000000e+00 -2.486107e-13 0
0.000000e+00 0.000000e+00 0
0.000000e+00 0.000000e+00 0
0.000000e+00 0.000000e+00 0
0.000000e+00 0.000000e+00 0
0.000000e+00 0.000000e+00 0
0.000000e+00 0.000000e+00 0
0.000000e+00 0.000000e+00 0
0.000000e+00 -5.000000e+01 0
0.000000e+00 -1.000137e+02 0
-7.172936e-03 -1.000290e+02 0
-1.502330e-02 -1.000343e+02 0
-2.406324e-02 -1.000320e+02 0
-2.176949e-02 -5.001306e+01 0
0.000000e+00 0.000000e+00 0
0.000000e+00 0.000000e+00 0
0.000000e+00 0.000000e+00 0
0.000000e+00 0.000000e+00 0
0.000000e+00 0.000000e+00 0
0.000000e+00 5.885470e+01 0
0.000000e+00 -2.486107e-13 0
0.000000e+00 0.000000e+00 0
0.000000e+00 0.000000e+00 0
0.000000e+00 0.000000e+00 0
0.000000e+00 0.000000e+00 0
0.000000e+00 0.000000e+00 0
0.000000e+00 0.000000e+00 0
0.000000e+00 0.000000e+00 0
0.000000e+00 -5.000000e+01 0
0.000000e+00 -1.000099e+02 0
-7.341552e-03 -1.000211e+02 0
-1.535410e-02 -1.000256e+02 0
-2.446576e-02 -1.000290e+02 0
-2.062673e-02 -5.001460e+01 0
0.000000e+00 0.000000e+00 0
0.000000e+00 0.000000e+00 0
0.000000e+00 0.000000e+00 0
0.000000e+00 0.000000e+00 0
0.000000e+00 0.000000e+00 0
0.000000e+00 5.885470e+01 0
0.000000e+00 -2.486107e-13 0
0.000000e+00 0.000000e+00 0
0.000000e+00 0.000000e+00 0
0.000000e+00 0.000000e+00 0
0.000000e+00 0.000000e+00 0
0.000000e+00 0.000000e+00 0
0.000000e+00 0.000000e+00 0
0.000000e+00 0.000000e+00 0
0.000000e+00 -5.000000e+01 0
0.000000e+00 -1.000062e+02 0
-6.658120e-03 -1.000135e+02 0
-1.410553e-02 -1.000171e+02 0
-2.283108e-02 -1.000267e+02 0
-2.157629e-02 -5.001693e+01 0
0.000000e+00 0.000000e+00 0
0.000000e+00 0.000000e+00 0
0.000000e+00 0.000000e+00 0
0.000000e+00 0.000000e+00 0
0.000000e+00 0.000000e+00 0
0.000000e+00 5.885470e+01 0
0.000000e+00 -2.486107e-13 0
0.000000e+00 0.000000e+00 0
0.000000e+00 0.000000e+00 0
0.000000e+00 0.000000e+00 0
0.000000e+00 0.000000e+00 0
0.000000e+00 0.000000e+00 0
0.000000e+00 0.000000e+00 0
0.000000e+00 0.000000e+00 0
0.000000e+00 -5.000000e+01 0
0.000000e+00 -1.000031e+02 0
-5.155265e-03 -1.000068e+02 0
-1.125047e-02 -1.000093e+02 0
-1.898319e-02 -1.000214e+02 0
-3.578171e-02 -5.001587e+01 0
0.000000e+00 0.000000e+00 0
0.000000e+00 0.000000e+00 0
0.000000e+00 0.000000e+00 0
0.000000e+00 0.000000e+00 0
0.000000e+00 0.000000e+00 0
0.000000e+00 5.885470e+01 0
0.000000e+00 -2.486107e-13 0
0.000000e+00 0.000000e+00 0
0.000000e+00 0.000000e+00 0
0.000000e+00 0.000000e+00 0
0.000000e+00 0.000000e+00 0
0.000000e+00 0.000000e+00 0
0.000000e+00 0.000000e+00 0
0.000000e+00 0.000000e+00 0
0.000000e+00 -5.000000e+01 0
0.000000e+00 -1.000009e+02 0
-2.858425e-03 -1.000020e+02 0
-6.583900e-03 -1.000031e+02 0
-1.209936e-02 -1.000020e+02 0
-2.784765e-02 -5.000000e+01 0
0.000000e+00 0.000000e+00 0
0.000000e+00 0.000000e+00 0
0.000000e+00 0.000000e+00 0
0.000000e+00 0.000000e+00 0
0.000000e+00 0.000000e+00 0
-5.841219e+01 5.890086e+01 0
0.000000e+00 -2.585551e-13 0
0.000000e+00 0.000000e+00 0
0.000000e+00 0.000000e+00 0
0.000000e+00 0.000000e+00 0
0.000000e+00 0.000000e+00 0
0.000000e+00 0.000000e+00 0
0.000000e+00 0.000000e+00 0
0.000000e+00 0.000000e+00 0
0.000000e+00 -5.000000e+01 0
0.000000e+00 -1.000000e+02 0
-6.373076e-18 -1.000000e+02 0
-1.547747e-17 -1.000000e+02 0
-3.189283e-17 -1.000000e+02 0
-3.216886e-17 -5.000000e+01 0
0.000000e+00 0.000000e+00 0
0.000000e+00 0.000000e+00 0
0.000000e+00 0.000000e+00 0
0.000000e+00 0.000000e+00 0
0.000000e+00 0.000000e+00 0
-4.872769e-13 0.000000e+00 0
0.000000e+00 0.000000e+00 0
</DataArray>
<DataArray Name="Type and Neighbourhood" type="Float64" format="ascii" NumberOfComponents="3">
1.000000e+01 0.000000e+00 0
1.100000e+01 2.000000e+00 0
0.000000e+00 0.000000e+00 0
1.100000e+01 1.000000e+00 0
0.000000e+00 0.000000e+00 0
0.000000e+00 0.000000e+00 0
0.000000e+00 0.000000e+00 0
0.000000e+00 0.000000e+00 0
0.000000e+00 0.000000e+00 0
0.000000e+00 0.000000e+00 0