<?xml version="1.0"?>
<VTKFile type="StructuredGrid">
<StructuredGrid WholeExtent="0 19 0 33 0 0 ">
<Piece Extent="0 19 0 33 0 0 ">
<Points>
<DataArray type="Float64" format="ascii" NumberOfComponents="3">
0.000000e+00 0.000000e+00 0.000000e+00
1.052632e-01 0.000000e+00 0.000000e+00
2.105263e-01 0.000000e+00 0.000000e+00
3.157895e-01 0.000000e+00 0.000000e+00
4.210526e-01 0.000000e+00 0.000000e+00
5.263158e-01 0.000000e+00 0.000000e+00
6.315789e-01 0.000000e+00 0.000000e+00
7.368421e-01 0.000000e+00 0.000000e+00
8.421053e-01 0.000000e+00 0.000000e+00
9.473684e-01 0.000000e+00 0.000000e+00
1.052632e+00 0.000000e+00 0.000000e+00
1.157895e+00 0.000000e+00 0.000000e+00
1.263158e+00 0.000000e+00 0.000000e+00
1.368421e+00 0.000000e+00 0.000000e+00
1.473684e+00 0.000000e+00 0.000000e+00
1.578947e+00 0.000000e+00 0.000000e+00
1.684211e+00 0.000000e+00 0.000000e+00
1.789474e+00 0.000000e+00 0.000000e+00
1.894737e+00 0.000000e+00 0.000000e+00
2.000000e+00 0.000000e+00 0.000000e+00
0.000000e+00 1.060606e-01 0.000000e+00
1.052632e-01 1.060606e-01 0.000000e+00
2.105263e-01 1.060606e-01 0.000000e+00
3.157895e-01 1.060606e-01 0.000000e+00
4.210526e-01 1.060606e-01 0.000000e+00
5.263158e-01 1.060606e-01 0.000000e+00
6.315789e-01 1.060606e-01 0.000000e+00
7.368421e-01 1.060606e-01 0.000000e+00
8.421053e-01 1.060606e-01 0.000000e+00
9.473684e-01 1.060606e-01 0.000000e+00
1.052632e+00 1.060606e-01 0.000000e+00
1.157895e+00 1.060606e-01 0.000000e+00
1.263158e+00 1.060606e-01 0.000000e+00
1.368421e+00 1.060606e-01 0.000000e+00
1.473684e+00 1.060606e-01 0.000000e+00
1.578947e+00 1.060606e-01 0.000000e+00
1.684211e+00 1.060606e-01 0.000000e+00
1.789474e+00 1.060606e-01 0.000000e+00
1.894737e+00 1.060606e-01 0.000000e+00
2.000000e+00 1.060606e-01 0.000000e+00
0.000000e+00 2.121212e-01 0.000000e+00
1.052632e-01 2.121212e-01 0.000000e+00
2.105263e-01 2.121212e-01 0.000000e+00
3.157895e-01 2.121212e-01 0.000000e+00
4.210526e-01 2.121212e-01 0.000000e+00
5.263158e-01 2.121212e-01 0.000000e+00
6.315789e-01 2.121212e-01 0.000000e+00
7.368421e-01 2.121212e-01 0.000000e+00
8.421053e-01 2.121212e-01 0.000000e+00
9.473684e-01 2.121212e-01 0.000000e+00
1.052632e+00 2.121212e-01 0.000000e+00
1.157895e+00 2.121212e-01 0.000000e+00
1.263158e+00 2.121212e-01 0.000000e+00
1.368421e+00 2.121212e-01 0.000000e+00
1.473684e+00 2.121212e-01 0.000000e+00
1.578947e+00 2.121212e-01 0.000000e+00
1.684211e+00 2.121212e-01 0.000000e+00
1.789474e+00 2.121212e-01 0.000000e+00
1.894737e+00 2.121212e-01 0.000000e+00
2.000000e+00 2.121212e-01 0.000000e+00
0.000000e+00 3.181818e-01 0.000000e+00
1.052632e-01 3.181818e-01 0.000000e+00
2.105263e-01 3.181818e-01 0.000000e+00
3.157895e-01 3.181818e-01 0.000000e+00
4.210526e-01 3.181818e-01 0.000000e+00
5.263158e-01 3.181818e-01 0.000000e+00
6.315789e-01 3.181818e-01 0.000000e+00
7.368421e-01 3.181818e-01 0.000000e+00
8.421053e-01 3.181818e-01 0.000000e+00
9.473684e-01 3.181818e-01 0.000000e+00
1.052632e+00 3.181818e-01 0.000000e+00
1.157895e+00 3.181818e-01 0.000000e+00
1.263158e+00 3.181818e-01 0.000000e+00
1.368421e+00 3.181818e-01 0.000000e+00
1.473684e+00 3.181818e-01 0.000000e+00
1.578947e+00 3.181818e-01 0.000000e+00
1.684211e+00 3.181818e-01 0.000000e+00
1.789474e+00 3.181818e-01 0.000000e+00
1.894737e+00 3.181818e-01 0.000000e+00
2.000000e+00 3.181818e-01 0.000000e+00
0.000000e+00 4.242424e-01 0.000000e+00
1.052632e-01 4.242424e-01 0.000000e+00
2.105263e-01 4.242424e-01 0.000000e+00
3.157895e-01 4.242424e-01 0.000000e+00
4.210526e-01 4.242424e-01 0.000000e+00
5.263158e-01 4.242424e-01 0.000000e+00
6.315789e-01 4.242424e-01 0.000000e+00
7.368421e-01 4.242424e-01 0.000000e+00
8.421053e-01 4.242424e-01 0.000000e+00
9.473684e-01 4.242424e-01 0.000000e+00
1.052632e+00 4.242424e-01 0.000000e+00
1.157895e+00 4.242424e-01 0.000000e+00
1.263158e+00 4.242424e-01 0.000000e+00
1.368421e+00 4.242424e-01 0.000000e+00
1.473684e+00 4.242424e-01 0.000000e+00
1.578947e+00 4.242424e-01 0.000000e+00
1.684211e+00 4.242424e-01 0.000000e+00
1.789474e+00 4.242424e-01 0.000000e+00
1.894737e+00 4.242424e-01 0.000000e+00
2.000000e+00 4.242424e-01 0.000000e+00
0.000000e+00 5.303030e-01 0.000000e+00
1.052632e-01 5.303030e-01 0.000000e+00
2.105263e-01 5.303030e-01 0.000000e+00
3.157895e-01 5.303030e-01 0.000000e+00
4.210526e-01 5.303030e-01 0.000000e+00
5.263158e-01 5.303030e-01 0.000000e+00
6.315789e-01 5.303030e-01 0.000000e+00
7.368421e-01 5.303030e-01 0.000000e+00
8.421053e-01 5.303030e-01 0.000000e+00
9.473684e-01 5.303030e-01 0.000000e+00
1.052632e+00 5.303030e-01 0.000000e+00
1.157895e+00 5.303030e-01 0.000000e+00
1.263158e+00 5.303030e-01 0.000000e+00
1.368421e+00 5.303030e-01 0.000000e+00
1.473684e+00 5.303030e-01 0.000000e+00
1.578947e+00 5.303030e-01 0.000000e+00
1.684211e+00 5.303030e-01 0.000000e+00
1.789474e+00 5.303030e-01 0.000000e+00
1.894737e+00 5.303030e-01 0.000000e+00
2.000000e+00 5.303030e-01 0.000000e+00
0.000000e+00 6.363636e-01 0.000000e+00
1.052632e-01 6.363636e-01 0.000000e+00
2.105263e-01 6.363636e-01 0.000000e+00
3.157895e-01 6.363636e-01 0.000000e+00
4.210526e-01 6.363636e-01 0.000000e+00
5.263158e-01 6.363636e-01 0.000000e+00
6.315789e-01 6.363636e-01 0.000000e+00
7.368421e-01 6.363636e-01 0.000000e+00
8.421053e-01 6.363636e-01 0.000000e+00
9.473684e-01 6.363636e-01 0.000000e+00
1.052632e+00 6.363636e-01 0.000000e+00
1.157895e+00 6.363636e-01 0.000000e+00
1.263158e+00 6.363636e-01 0.000000e+00
1.368421e+00 6.363636e-01 0.000000e+00
1.473684e+00 6.363636e-01 0.000000e+00
1.578947e+00 6.363636e-01 0.000000e+00
1.684211e+00 6.363636e-01 0.000000e+00
1.789474e+00 6.363636e-01 0.000000e+00
1.894737e+00 6.363636e-01 0.000000e+00
2.000000e+00 6.363636e-01 0.000000e+00
0.000000e+00 7.424242e-01 0.000000e+00
1.052632e-01 7.424242e-01 0.000000e+00
2.105263e-01 7.424242e-01 0.000000e+00
3.157895e-01 7.424242e-01 0.000000e+00
4.210526e-01 7.424242e-01 0.000000e+00
5.263158e-01 7.424242e-01 0.000000e+00
6.315789e-01 7.424242e-01 0.000000e+00
7.368421e-01 7.424242e-01 0.000000e+00
8.421053e-01 7.424242e-01 0.000000e+00
9.473684e-01 7.424242e-01 0.000000e+00
1.052632e+00 7.424242e-01 0.000000e+00
1.157895e+00 7.424242e-01 0.000000e+00
1.263158e+00 7.424242e-01 0.000000e+00
1.368421e+00 7.424242e-01 0.000000e+00
1.473684e+00 7.424242e-01 0.000000e+00
1.578947e+00 7.424242e-01 0.000000e+00
1.684211e+00 7.424242e-01 0.000000e+00
1.789474e+00 7.424242e-01 0.000000e+00
1.894737e+00 7.424242e-01 0.000000e+00
2.000000e+00 7.424242e-01 0.000000e+00
0.000000e+00 8.484848e-01 0.000000e+00
1.052632e-01 8.484848e-01 0.000000e+00
2.105263e-01 8.484848e-01 0.000000e+00
3.157895e-01 8.484848e-01 0.000000e+00
4.210526e-01 8.484848e-01 0.000000e+00
5.263158e-01 8.484848e-01 0.000000e+00
6.315789e-01 8.484848e-01 0.000000e+00
7.368421e-01 8.484848e-01 0.000000e+00
8.421053e-01 8.484848e-01 0.000000e+00
9.473684e-01 8.484848e-01 0.000000e+00
1.052632e+00 8.484848e-01 0.000000e+00
1.157895e+00 8.484848e-01 0.000000e+00
1.263158e+00 8.484848e-01 0.000000e+00
1.368421e+00 8.484848e-01 0.000000e+00
1.473684e+00 8.484848e-01 0.000000e+00
1.578947e+00 8.484848e-01 0.000000e+00
1.684211e+00 8.484848e-01 0.000000e+00
1.789474e+00 8.484848e-01 0.000000e+00
1.894737e+00 8.484848e-01 0.000000e+00
2.000000e+00 8.484848e-01 0.000000e+00
0.000000e+00 9.545455e-01 0.000000e+00
1.052632e-01 9.545455e-01 0.000000e+00
2.105263e-01 9.545455e-01 0.000000e+00
3.157895e-01 9.545455e-01 0.000000e+00
4.210526e-01 9.545455e-01 0.000000e+00
5.263158e-01 9.545455e-01 0.000000e+00
6.315789e-01 9.545455e-01 0.000000e+00
7.368421e-01 9.545455e-01 0.000000e+00
8.421053e-01 9.545455e-01 0.000000e+00
9.473684e-01 9.545455e-01 0.000000e+00
1.052632e+00 9.545455e-01 0.000000e+00
1.157895e+00 9.545455e-01 0.000000e+00
1.263158e+00 9.545455e-01 0.000000e+00
1.368421e+00 9.545455e-01 0.000000e+00
1.473684e+00 9.545455e-01 0.000000e+00
1.578947e+00 9.545455e-01 0.000000e+00
1.684211e+00 9.545455e-01 0.000000e+00
1.789474e+00 9.545455e-01 0.000000e+00
1.894737e+00 9.545455e-01 0.000000e+00
2.000000e+00 9.545455e-01 0.000000e+00
0.000000e+00 1.060606e+00 0.000000e+00
1.052632e-01 1.060606e+00 0.000000e+00
2.105263e-01 1.060606e+00 0.000000e+00
3.157895e-01 1.060606e+00 0.000000e+00
4.210526e-01 1.060606e+00 0.000000e+00
5.263158e-01 1.060606e+00 0.000000e+00
6.315789e-01 1.060606e+00 0.000000e+00
7.368421e-01 1.060606e+00 0.000000e+00
8.421053e-01 1.060606e+00 0.000000e+00
9.473684e-01 1.060606e+00 0.000000e+00
1.052632e+00 1.060606e+00 0.000000e+00
1.157895e+00 1.060606e+00 0.000000e+00
1.263158e+00 1.060606e+00 0.000000e+00
1.368421e+00 1.060606e+00 0.000000e+00
1.473684e+00 1.060606e+00 0.000000e+00
1.578947e+00 1.060606e+00 0.000000e+00
1.684211e+00 1.060606e+00 0.000000e+00
1.789474e+00 1.060606e+00 0.000000e+00
1.894737e+00 1.060606e+00 0.000000e+00
2.000000e+00 1.060606e+00 0.000000e+00
0.000000e+00 1.166667e+00 0.000000e+00
1.052632e-01 1.166667e+00 0.000000e+00
2.105263e-01 1.166667e+00 0.000000e+00
3.157895e-01 1.166667e+00 0.000000e+00
4.210526e-01 1.166667e+00 0.000000e+00
5.263158e-01 1.166667e+00 0.000000e+00
6.315789e-01 1.166667e+00 0.000000e+00
7.368421e-01 1.166667e+00 0.000000e+00
8.421053e-01 1.166667e+00 0.000000e+00
9.473684e-01 1.166667e+00 0.000000e+00
1.052632e+00 1.166667e+00 0.000000e+00
1.157895e+00 1.166667e+00 0.000000e+00
1.263158e+00 1.166667e+00 0.000000e+00
1.368421e+00 1.166667e+00 0.000000e+00
1.473684e+00 1.166667e+00 0.000000e+00
1.578947e+00 1.166667e+00 0.000000e+00
1.684211e+00 1.166667e+00 0.000000e+00
1.789474e+00 1.166667e+00 0.000000e+00
1.894737e+00 1.166667e+00 0.000000e+00
2.000000e+00 1.166667e+00 0.000000e+00
0.000000e+00 1.272727e+00 0.000000e+00
1.052632e-01 1.272727e+00 0.000000e+00
2.105263e-01 1.272727e+00 0.000000e+00
3.157895e-01 1.272727e+00 0.000000e+00
4.210526e-01 1.272727e+00 0.000000e+00
5.263158e-01 1.272727e+00 0.000000e+00
6.315789e-01 1.272727e+00 0.000000e+00
7.368421e-01 1.272727e+00 0.000000e+00
8.421053e-01 1.272727e+00 0.000000e+00
9.473684e-01 1.272727e+00 0.000000e+00
1.052632e+00 1.272727e+00 0.000000e+00
[...]
<PointData>
<DataArray Name="Velocity" type="Float64" format="ascii" NumberOfComponents="3">
0.000000e+00 0.000000e+00 0
0.000000e+00 0.000000e+00 0
0.000000e+00 0.000000e+00 0
0.000000e+00 0.000000e+00 0
0.000000e+00 0.000000e+00 0
0.000000e+00 0.000000e+00 0
0.000000e+00 0.000000e+00 0
0.000000e+00 0.000000e+00 0
0.000000e+00 0.000000e+00 0
0.000000e+00 0.000000e+00 0
0.000000e+00 0.000000e+00 0
-3.094463e-16 0.000000e+00 0
0.000000e+00 0.000000e+00 0
0.000000e+00 0.000000e+00 0
0.000000e+00 0.000000e+00 0
1.191717e-15 0.000000e+00 0
0.000000e+00 0.000000e+00 0
0.000000e+00 0.000000e+00 0
0.000000e+00 0.000000e+00 0
0.000000e+00 0.000000e+00 0
0.000000e+00 0.000000e+00 0
-2.020530e+01 1.880717e+01 0
-3.334528e+01 8.491411e+00 0
-4.393785e+01 5.235349e+00 0
-4.924088e+01 1.912003e+00 0
-4.791812e+01 -3.261447e+00 0
-4.160372e+01 -7.432125e+00 0
-3.382840e+01 -1.151932e+01 0
-1.971668e+01 -1.153508e+01 0
-9.197157e+00 -1.066182e+01 0
2.287910e+00 -9.899555e+00 0
1.168238e+01 -9.436492e+00 0
2.333747e+01 -1.030660e+01 0
3.235437e+01 -6.937856e+00 0
3.674370e+01 -2.384159e+00 0
3.646835e+01 1.767693e+00 0
3.221529e+01 4.564023e+00 0
2.503983e+01 9.834502e+00 0
1.540146e+01 1.326101e+01 0
0.000000e+00 -2.610412e-14 0
0.000000e+00 0.000000e+00 0
-1.564558e+01 3.359789e+01 0
-3.276184e+01 2.391235e+01 0
-4.738674e+01 1.601603e+01 0
-5.337144e+01 4.010421e+00 0
-5.022955e+01 -7.695016e+00 0
-4.217861e+01 -1.419647e+01 0
-3.639134e+01 -2.205285e+01 0
-2.176252e+01 -2.481784e+01 0
-8.927053e+00 -2.217129e+01 0
2.424224e+00 -2.103771e+01 0
1.454761e+01 -2.120903e+01 0
2.695902e+01 -2.082860e+01 0
3.586410e+01 -1.350779e+01 0
3.978421e+01 -4.145138e+00 0
3.871218e+01 4.562720e+00 0
3.321761e+01 1.151510e+01 0
2.375177e+01 1.694120e+01 0
1.492320e+01 2.522952e+01 0
0.000000e+00 -6.463877e-14 0
0.000000e+00 0.000000e+00 0
-1.902960e+01 5.181720e+01 0
-3.801344e+01 4.047303e+01 0
-5.227243e+01 2.600108e+01 0
-5.896709e+01 4.776347e+00 0
-5.371834e+01 -1.453907e+01 0
-4.250731e+01 -2.137516e+01 0
-3.769857e+01 -3.209007e+01 0
-2.242546e+01 -3.920743e+01 0
-8.514444e+00 -3.503180e+01 0
3.868368e+00 -3.355206e+01 0
1.700986e+01 -3.415716e+01 0
3.011419e+01 -3.178458e+01 0
3.900847e+01 -1.986020e+01 0
4.251358e+01 -5.253813e+00 0
4.062439e+01 8.384042e+00 0
3.411024e+01 1.963777e+01 0
2.389165e+01 2.826750e+01 0
1.132142e+01 3.719271e+01 0
0.000000e+00 -8.949984e-14 0
0.000000e+00 0.000000e+00 0
-1.813084e+01 7.189931e+01 0
-3.300624e+01 5.740702e+01 0
-4.149720e+01 3.712842e+01 0
-4.015032e+01 5.467285e+00 0
-5.617577e+01 -2.427949e+01 0
-3.996518e+01 -3.033760e+01 0
-3.627724e+01 -4.228683e+01 0
-2.122776e+01 -5.422305e+01 0
-7.177811e+00 -4.866432e+01 0
5.511161e+00 -4.675538e+01 0
1.876857e+01 -4.765368e+01 0
3.206700e+01 -4.299387e+01 0
4.070368e+01 -2.600111e+01 0
4.400434e+01 -5.773301e+00 0
4.126912e+01 1.302972e+01 0
3.398275e+01 2.837460e+01 0
2.364517e+01 3.990267e+01 0
1.139905e+01 4.930217e+01 0
0.000000e+00 -1.143609e-13 0
0.000000e+00 0.000000e+00 0
-1.215362e+01 8.507349e+01 0
-1.870787e+01 6.401640e+01 0
-1.947230e+01 3.319929e+01 0
-9.175542e+00 1.956612e+01 0
-2.832291e+01 -1.448555e+01 0
-2.678858e+01 -4.118438e+01 0
-3.076600e+01 -5.096945e+01 0
-1.773603e+01 -6.852731e+01 0
-4.812544e+00 -6.197329e+01 0
7.092927e+00 -5.969500e+01 0
1.956895e+01 -6.091417e+01 0
3.223143e+01 -5.388587e+01 0
3.989058e+01 -3.188798e+01 0
4.388151e+01 -5.823540e+00 0
3.967938e+01 1.848155e+01 0
3.147306e+01 3.739524e+01 0
2.170245e+01 5.102229e+01 0
1.081447e+01 6.101701e+01 0
0.000000e+00 -1.392220e-13 0
0.000000e+00 0.000000e+00 0
-6.764333e+00 9.074890e+01 0
-8.601207e+00 6.478114e+01 0
-8.110681e+00 2.581006e+01 0
0.000000e+00 0.000000e+00 0
0.000000e+00 -3.251452e+01 0
-1.078431e+01 -4.117312e+01 0
-2.212164e+01 -5.139471e+01 0
-1.230943e+01 -8.037312e+01 0
-1.715271e+00 -7.368138e+01 0
8.485928e+00 -7.132159e+01 0
1.929709e+01 -7.298263e+01 0
3.038057e+01 -6.346945e+01 0
3.566607e+01 -3.773945e+01 0
4.320837e+01 -5.560505e+00 0
3.395228e+01 2.553217e+01 0
2.422368e+01 4.648773e+01 0
1.738072e+01 6.071777e+01 0
9.080461e+00 7.116903e+01 0
0.000000e+00 -1.591108e-13 0
0.000000e+00 0.000000e+00 0
-4.223396e+00 9.373985e+01 0
-5.922390e+00 6.537295e+01 0
-5.922390e+00 2.581006e+01 0
0.000000e+00 0.000000e+00 0
0.000000e+00 -3.251452e+01 0
-2.653315e+00 -3.506920e+01 0
-9.812943e+00 -4.938299e+01 0
-5.702496e+00 -8.908828e+01 0
1.555593e+00 -8.292618e+01 0
9.531217e+00 -8.086655e+01 0
1.812670e+01 -8.297468e+01 0
2.689672e+01 -7.037886e+01 0
2.718016e+01 -4.481296e+01 0
3.237386e+01 -4.096763e+00 0
1.485247e+01 3.757097e+01 0
1.957228e+01 5.405326e+01 0
1.400378e+01 6.628024e+01 0
7.337728e+00 7.852940e+01 0
0.000000e+00 -1.789997e-13 0
0.000000e+00 0.000000e+00 0
-4.633480e+00 9.671616e+01 0
-6.059448e+00 6.649301e+01 0
-6.059448e+00 2.581006e+01 0
0.000000e+00 0.000000e+00 0
0.000000e+00 0.000000e+00 0
0.000000e+00 0.000000e+00 0
-2.462751e+00 -4.687253e+01 0
-8.379253e-01 -9.182262e+01 0
4.018817e+00 -8.903050e+01 0
1.003410e+01 -8.801823e+01 0
1.654877e+01 -9.047970e+01 0
2.318320e+01 -7.259150e+01 0
1.799969e+01 -4.325808e+01 0
1.087495e+01 -1.720845e+01 0
2.232417e-14 9.746322e+00 0
1.058306e+01 4.266901e+01 0
1.020609e+01 7.298654e+01 0
5.678811e+00 8.527889e+01 0
0.000000e+00 -1.889441e-13 0
0.000000e+00 0.000000e+00 0
-7.904457e+00 9.984521e+01 0
-8.218789e+00 6.680972e+01 0
-3.105519e+00 2.581006e+01 0
0.000000e+00 0.000000e+00 0
0.000000e+00 0.000000e+00 0
0.000000e+00 -5.000000e-05 0
-1.324885e+00 -4.846112e+01 0
1.273386e+00 -9.561458e+01 0
5.293865e+00 -9.388057e+01 0
1.004683e+01 -9.349143e+01 0
1.494853e+01 -9.622339e+01 0
1.964727e+01 -7.184077e+01 0
1.204876e+01 -2.238173e+01 0
0.000000e+00 0.000000e+00 0
-1.080848e+01 9.746322e+00 0
9.202639e+00 3.963984e+01 0
7.636492e+00 7.114136e+01 0
4.337851e+00 8.881281e+01 0
0.000000e+00 -2.088330e-13 0
0.000000e+00 0.000000e+00 0
-5.426827e+00 1.049972e+02 0
-5.113270e+00 4.099966e+01 0
0.000000e+00 2.701750e-14 0
0.000000e+00 0.000000e+00 0
0.000000e+00 0.000000e+00 0
0.000000e+00 -5.000000e-05 0
-3.569087e-01 -4.954726e+01 0
2.129152e+00 -9.854823e+01 0
5.831573e+00 -9.787041e+01 0
9.913816e+00 -9.774603e+01 0
1.380912e+01 -1.001529e+02 0
1.708802e+01 -6.966976e+01 0
-5.125374e+00 -1.839354e+01 0
0.000000e+00 8.092293e+00 0
-1.080848e+01 2.371322e+01 0
6.046857e+00 5.009981e+01 0
5.299175e+00 7.786636e+01 0
3.066620e+00 9.297324e+01 0
0.000000e+00 -1.988885e-13 0
0.000000e+00 0.000000e+00 0
-3.320609e-01 6.431348e+01 0
0.000000e+00 0.000000e+00 0
0.000000e+00 0.000000e+00 0
0.000000e+00 0.000000e+00 0
0.000000e+00 0.000000e+00 0
0.000000e+00 -5.000000e-05 0
-1.926346e+00 -5.104398e+01 0
1.957173e+00 -1.019279e+02 0
5.984767e+00 -1.017242e+02 0
9.971749e+00 -1.015294e+02 0
1.366817e+01 -1.034520e+02 0
1.701216e+01 -5.276283e+01 0
-1.243035e+00 -5.000000e-05 0
0.000000e+00 0.000000e+00 0
-1.053822e-14 -3.500000e-04 0
-4.995781e+00 3.057275e+01 0
1.761300e+00 7.407041e+01 0
1.635296e+00 9.415213e+01 0
0.000000e+00 -2.088330e-13 0
0.000000e+00 0.000000e+00 0
-3.404656e-03 6.433213e+01 0
0.000000e+00 0.000000e+00 0
0.000000e+00 0.000000e+00 0
0.000000e+00 0.000000e+00 0
0.000000e+00 0.000000e+00 0
0.000000e+00 -5.000000e-05 0
-2.277622e+00 -5.349027e+01 0
1.891481e+00 -1.065494e+02 0
6.185735e+00 -1.059457e+02 0
1.032257e+01 -1.054876e+02 0
1.416054e+01 -1.072466e+02 0
1.768677e+01 -5.464559e+01 0
1.768677e+01 -5.000000e-05 0
0.000000e+00 0.000000e+00 0
-1.056212e-14 -3.500000e-04 0
-5.007111e+00 2.760678e+01 0
6.840415e-01 7.112157e+01 0
8.122604e-01 9.474788e+01 0
0.000000e+00 -2.187774e-13 0
0.000000e+00 0.000000e+00 0
1.690910e-01 6.431691e+01 0
0.000000e+00 0.000000e+00 0
0.000000e+00 0.000000e+00 0
0.000000e+00 0.000000e+00 0
0.000000e+00 0.000000e+00 0
0.000000e+00 -5.000000e-05 0
-8.479312e-01 -5.527052e+01 0
2.231949e+00 -1.104812e+02 0
6.555680e+00 -1.102192e+02 0
1.096570e+01 -1.095646e+02 0
1.519081e+01 -1.108719e+02 0
1.909443e+01 -5.631578e+01 0
1.909701e+01 -5.000000e-05 0
0.000000e+00 0.000000e+00 0
-6.970878e-15 -3.500000e-04 0
-3.304636e+00 2.481245e+01 0
-2.851223e-01 6.818092e+01 0
1.686129e-01 9.484135e+01 0
0.000000e+00 -2.187774e-13 0
0.000000e+00 0.000000e+00 0
1.816914e-01 6.416175e+01 0
0.000000e+00 0.000000e+00 0
0.000000e+00 0.000000e+00 0
0.000000e+00 0.000000e+00 0
0.000000e+00 0.000000e+00 0
0.000000e+00 -5.000000e-05 0
-3.215183e-01 -5.664862e+01 0
2.249356e+00 -1.140642e+02 0
6.849557e+00 -1.147456e+02 0
1.176910e+01 -1.141882e+02 0
1.692940e+01 -1.154369e+02 0
2.208446e+01 -5.858139e+01 0
2.208704e+01 -2.650000e-03 0
0.000000e+00 0.000000e+00 0
-1.738688e-15 -3.500000e-04 0
-8.242478e-01 2.443793e+01 0
-1.878612e+00 6.749555e+01 0
-5.881552e-01 9.446060e+01 0
0.000000e+00 -2.287218e-13 0
0.000000e+00 0.000000e+00 0
8.358096e-03 6.413384e+01 0
-1.934204e-02 2.579267e-14 0
0.000000e+00 0.000000e+00 0
0.000000e+00 0.000000e+00 0
0.000000e+00 0.000000e+00 0
0.000000e+00 -5.000000e-05 0
-4.027564e-01 -5.793155e+01 0
1.809080e+00 -1.177773e+02 0
6.818284e+00 -1.198110e+02 0
1.227385e+01 -1.197208e+02 0
1.870990e+01 -1.212655e+02 0
2.541661e+01 -6.151249e+01 0
2.541661e+01 -2.650000e-03 0
0.000000e+00 0.000000e+00 0
-4.878340e-15 -3.500000e-04 0
-2.312641e+00 2.567457e+01 0
-3.981310e+00 6.774281e+01 0
-1.524034e+00 9.294851e+01 0
0.000000e+00 -2.287218e-13 0
0.000000e+00 0.000000e+00 0
-7.169865e-02 7.647350e+01 0
-7.169865e-02 1.231999e+01 0
0.000000e+00 0.000000e+00 0
0.000000e+00 0.000000e+00 0
0.000000e+00 0.000000e+00 0
0.000000e+00 -5.000000e-05 0
-5.057985e-01 -5.894954e+01 0
1.134586e+00 -1.214123e+02 0
6.278351e+00 -1.252897e+02 0
1.165757e+01 -1.261699e+02 0
1.891724e+01 -1.286793e+02 0
3.178521e+01 -6.533891e+01 0
2.249751e+01 -2.650000e-03 0
8.951344e+00 0.000000e+00 0
-1.724741e-14 2.616833e+01 0
-8.176359e+00 5.205245e+01 0
-6.115678e+00 6.646549e+01 0
-2.512374e+00 9.044913e+01 0
0.000000e+00 -2.088330e-13 0
0.000000e+00 0.000000e+00 0
-1.444822e-01 7.652625e+01 0
-1.444822e-01 1.231999e+01 0
0.000000e+00 0.000000e+00 0
0.000000e+00 0.000000e+00 0
0.000000e+00 0.000000e+00 0
0.000000e+00 -5.000000e-05 0
-3.674773e-01 -5.966674e+01 0
6.097359e-01 -1.246952e+02 0
5.320175e+00 -1.304137e+02 0
8.798887e+00 -1.324555e+02 0
9.641155e+00 -1.415456e+02 0
2.104730e+00 -1.153722e+02 0
7.730563e+01 -1.191189e+02 0
2.585384e+01 -7.822198e+01 0
-5.719010e-01 2.616833e+01 0
-1.066268e+01 4.941278e+01 0
-7.849390e+00 6.168172e+01 0
-3.384432e+00 8.678650e+01 0
0.000000e+00 -1.988885e-13 0
0.000000e+00 0.000000e+00 0
-2.353183e-01 7.661908e+01 0
-2.353183e-01 1.231999e+01 0
0.000000e+00 0.000000e+00 0
0.000000e+00 0.000000e+00 0
0.000000e+00 0.000000e+00 0
0.000000e+00 -5.000000e-05 0
-3.356094e-01 -6.001558e+01 0
7.336211e-01 -1.272244e+02 0
5.213997e+00 -1.335409e+02 0
7.751422e+00 -1.305236e+02 0
5.373144e+00 -1.219344e+02 0
-1.576731e+01 -1.837683e+02 0
9.709129e+01 -1.524060e+02 0
1.690249e+01 -1.212101e+02 0
-1.950072e+01 -6.569310e+01 0
-1.405337e+01 5.195730e+01 0
-1.052369e+01 5.890330e+01 0
-4.039000e+00 8.254027e+01 0
0.000000e+00 -1.889441e-13 0
0.000000e+00 0.000000e+00 0
-3.457198e-01 7.676336e+01 0
-3.457198e-01 1.231999e+01 0
0.000000e+00 0.000000e+00 0
0.000000e+00 0.000000e+00 0
0.000000e+00 0.000000e+00 0
0.000000e+00 -5.000000e-05 0
-2.960253e-01 -6.081427e+01 0
1.675703e+00 -1.303571e+02 0
6.297893e+00 -1.374847e+02 0
9.862414e+00 -1.326158e+02 0
1.268094e+01 -1.178487e+02 0
1.028193e+01 -2.077852e+02 0
4.030402e+01 -1.546105e+02 0
0.000000e+00 -9.193099e+01 0
-4.148899e+01 -7.259888e+01 0
-1.623596e+01 3.902014e+01 0
-1.086601e+01 5.159149e+01 0
-3.517622e+00 7.618308e+01 0
0.000000e+00 -1.839719e-13 0
0.000000e+00 0.000000e+00 0
-4.742692e-01 7.696742e+01 0
-4.742692e-01 1.231999e+01 0
0.000000e+00 0.000000e+00 0
0.000000e+00 0.000000e+00 0
0.000000e+00 0.000000e+00 0
0.000000e+00 -5.000000e-05 0
-9.805044e-02 -6.206370e+01 0
2.875504e+00 -1.339298e+02 0
6.955822e+00 -1.417896e+02 0
9.717994e+00 -1.369550e+02 0
1.235206e+01 -1.223571e+02 0
1.551207e+01 -2.116006e+02 0
1.716415e+01 -1.562751e+02 0
0.000000e+00 -9.193099e+01 0
-2.256017e+01 -8.862830e+01 0
1.620241e+01 2.071277e+01 0
1.213124e+00 4.608861e+01 0
-4.649683e-01 7.159194e+01 0
0.000000e+00 -1.789997e-13 0
0.000000e+00 0.000000e+00 0
-6.267037e-01 7.724122e+01 0
-6.267037e-01 1.231999e+01 0
0.000000e+00 0.000000e+00 0
0.000000e+00 0.000000e+00 0
0.000000e+00 0.000000e+00 0
0.000000e+00 -5.000000e-05 0
-8.862432e-02 -6.386638e+01 0
3.625142e+00 -1.375204e+02 0
6.223437e+00 -1.443790e+02 0
5.835319e+00 -1.380529e+02 0
4.880979e+00 -1.236866e+02 0
5.906282e+00 -2.126337e+02 0
5.597131e+00 -1.562751e+02 0
0.000000e+00 0.000000e+00 0
4.898207e-14 3.189701e+01 0
2.322059e+01 6.617222e+01 0
6.550058e+00 6.786948e+01 0
4.261187e-01 7.740540e+01 0
0.000000e+00 -1.889441e-13 0
0.000000e+00 0.000000e+00 0
-8.016373e-01 7.759887e+01 0
-8.016373e-01 1.231999e+01 0
0.000000e+00 0.000000e+00 0
0.000000e+00 0.000000e+00 0
0.000000e+00 0.000000e+00 0
0.000000e+00 -5.000000e-05 0
-8.152234e-02 -6.585716e+01 0
3.604620e+00 -1.403412e+02 0
4.124393e+00 -1.440165e+02 0
-4.620635e-01 -1.356024e+02 0
-3.015450e+00 -1.224286e+02 0
3.091508e-01 -5.635863e+01 0
0.000000e+00 0.000000e+00 0
0.000000e+00 0.000000e+00 0
-2.507349e-14 3.243965e+01 0
-1.188642e+01 6.516513e+01 0
-1.534654e+01 6.757435e+01 0
-4.712241e+00 7.819162e+01 0
0.000000e+00 -1.839719e-13 0
0.000000e+00 0.000000e+00 0
-9.668782e-01 7.804893e+01 0
-9.668782e-01 1.231999e+01 0
0.000000e+00 0.000000e+00 0
0.000000e+00 0.000000e+00 0
0.000000e+00 0.000000e+00 0
0.000000e+00 -5.000000e-05 0
-1.548422e+00 -6.763835e+01 0
2.536829e+00 -1.418161e+02 0
1.095744e+00 -1.402815e+02 0
-7.078612e+00 -1.308590e+02 0
-9.648661e+00 -6.475528e+01 0
0.000000e+00 0.000000e+00 0
0.000000e+00 0.000000e+00 0
0.000000e+00 0.000000e+00 0
-2.549693e-14 3.243965e+01 0
-1.208716e+01 6.932722e+01 0
-1.765202e+01 5.976697e+01 0
-6.149834e+00 6.194259e+01 0
0.000000e+00 -1.690552e-13 0
0.000000e+00 0.000000e+00 0
-1.048932e+00 7.857307e+01 0
-1.048932e+00 1.231999e+01 0
0.000000e+00 0.000000e+00 0
0.000000e+00 0.000000e+00 0
0.000000e+00 0.000000e+00 0
0.000000e+00 -5.000000e-05 0
-3.377808e+00 -7.000150e+01 0
7.704355e-01 -1.430335e+02 0
-2.102826e+00 -1.343282e+02 0
-1.211312e+01 -1.247766e+02 0
-3.000491e+01 -6.348044e+01 0
0.000000e+00 0.000000e+00 0
0.000000e+00 0.000000e+00 0
0.000000e+00 0.000000e+00 0
-1.446359e+00 0.000000e+00 0
-1.446359e+00 2.554332e+01 0
9.245743e+01 4.769041e+01 0
1.430801e+01 5.929342e+01 0
0.000000e+00 -1.591108e-13 0
0.000000e+00 0.000000e+00 0
-9.549867e-01 7.910581e+01 0
-9.549867e-01 1.231999e+01 0
0.000000e+00 0.000000e+00 0
0.000000e+00 0.000000e+00 0
0.000000e+00 0.000000e+00 0
0.000000e+00 -5.000000e-05 0
-2.894152e+00 -7.177879e+01 0
-1.497585e+00 -1.430615e+02 0
-5.355757e+00 -1.273004e+02 0
-1.225825e+01 -1.027456e+02 0
-2.888478e+01 -4.672795e+01 0
0.000000e+00 0.000000e+00 0
0.000000e+00 0.000000e+00 0
0.000000e+00 -5.000000e-05 0
-1.446359e+00 -1.000000e-04 0
-2.177836e+02 -7.779816e+01 0
3.987667e+01 2.271030e+01 0
-1.281808e+01 1.539880e+02 0
0.000000e+00 -2.187774e-13 0
0.000000e+00 0.000000e+00 0
-6.305447e-01 7.953529e+01 0
-6.305447e-01 1.231999e+01 0
0.000000e+00 0.000000e+00 0
0.000000e+00 0.000000e+00 0
0.000000e+00 0.000000e+00 0
0.000000e+00 -5.000000e-05 0
-1.965638e+00 -7.133365e+01 0
-6.063749e+00 -1.404783e+02 0
-1.166538e+01 -1.234860e+02 0
-1.069803e+01 -1.010693e+02 0
-5.203933e+00 -4.672795e+01 0
0.000000e+00 0.000000e+00 0
0.000000e+00 0.000000e+00 0
0.000000e+00 -5.000000e-05 0
-8.437726e-13 -1.096164e+02 0
-4.000015e+02 -3.508748e+02 0
-5.410592e+01 -1.654900e+02 0
-6.307040e+00 9.999962e+01 0
0.000000e+00 -9.944426e-14 0
0.000000e+00 0.000000e+00 0
-1.263791e-01 7.974113e+01 0
-1.263791e-01 1.231999e+01 0
0.000000e+00 0.000000e+00 0
0.000000e+00 0.000000e+00 0
0.000000e+00 0.000000e+00 0
0.000000e+00 -5.000000e-05 0
-2.029018e+00 -6.759266e+01 0
-1.498276e+01 -1.332313e+02 0
-2.668290e+01 -1.226310e+02 0
-2.940414e+01 -5.699229e+01 0
1.909823e+01 0.000000e+00 0
0.000000e+00 0.000000e+00 0
0.000000e+00 0.000000e+00 0
0.000000e+00 0.000000e+00 0
-3.874256e-13 7.543923e+01 0
-1.836642e+02 7.543923e+01 0
0.000000e+00 7.576848e+01 0
3.143899e+01 1.217400e+02 0
0.000000e+00 -1.988885e-13 0
0.000000e+00 0.000000e+00 0
3.760936e-01 7.966263e+01 0
3.760936e-01 1.231999e+01 0
0.000000e+00 0.000000e+00 0
0.000000e+00 0.000000e+00 0
0.000000e+00 0.000000e+00 0
0.000000e+00 -5.000000e-05 0
-3.260649e+00 -5.826758e+01 0
-2.594800e+01 -1.156234e+02 0
-4.643443e+01 -1.089012e+02 0
-5.856415e+01 -9.487944e+01 0
1.909823e+01 -4.333414e+01 0
0.000000e+00 0.000000e+00 0
0.000000e+00 0.000000e+00 0
0.000000e+00 0.000000e+00 0
0.000000e+00 0.000000e+00 0
0.000000e+00 0.000000e+00 0
-2.543852e+01 6.369505e+00 0
1.151762e+01 6.112458e+01 0
0.000000e+00 -2.287218e-13 0
0.000000e+00 0.000000e+00 0
1.252838e+00 7.936219e+01 0
1.252838e+00 1.231999e+01 0
0.000000e+00 0.000000e+00 0
0.000000e+00 0.000000e+00 0
0.000000e+00 0.000000e+00 0
0.000000e+00 -5.000000e-05 0
-7.126357e+00 -4.473689e+01 0
-2.869931e+01 -8.973391e+01 0
-5.207346e+01 -8.971353e+01 0
-7.163767e+01 -4.471646e+01 0
-5.777585e+01 0.000000e+00 0
-5.777585e+01 0.000000e+00 0
0.000000e+00 0.000000e+00 0
-4.922058e+01 0.000000e+00 0
-4.922058e+01 0.000000e+00 0
-4.920996e+01 3.317211e+01 0
1.101886e+00 1.108904e+01 0
3.369780e+00 3.460744e+01 0
0.000000e+00 -2.386662e-13 0
0.000000e+00 0.000000e+00 0
-2.166167e+00 7.840030e+01 0
-2.166167e+00 1.231999e+01 0
0.000000e+00 0.000000e+00 0
0.000000e+00 0.000000e+00 0
0.000000e+00 0.000000e+00 0
0.000000e+00 -5.000000e-05 0
-9.742474e+00 -3.639054e+01 0
-1.219989e+01 -7.019516e+01 0
-1.450429e+01 -6.569079e+01 0
-1.868434e+01 -6.001621e+01 0
-3.547216e+01 -3.074115e+01 0
-3.270284e+01 -2.611057e+00 0
2.917599e+01 -3.159036e+01 0
-2.149180e+01 -3.160801e+01 0
-7.854177e+01 -3.695000e-02 0
-4.920996e+01 -4.371892e+01 0
8.495279e+01 -3.991938e+01 0
1.695760e+01 6.104471e+01 0
0.000000e+00 -2.386662e-13 0
0.000000e+00 0.000000e+00 0
2.607501e+01 8.154476e+01 0
1.337913e+01 1.231999e+01 0
2.171735e+01 0.000000e+00 0
2.171735e+01 0.000000e+00 0
2.171735e+01 0.000000e+00 0
0.000000e+00 -5.000000e-05 0
-1.048727e+01 -4.188618e+01 0
6.941959e-01 -8.456133e+01 0
1.475419e+01 -8.323319e+01 0
2.998512e+01 -7.287407e+01 0
4.515773e+01 -3.779398e+01 0
7.559634e+01 3.871601e+01 0
1.095864e+02 1.506257e+01 0
7.751056e+01 2.833319e+01 0
2.309929e+01 5.746451e+01 0
0.000000e+00 -5.797320e+01 0
4.112975e+01 -7.066033e+01 0
-9.651557e+00 6.108944e+01 0
0.000000e+00 -3.182216e-13 0
0.000000e+00 4.299711e-03 0
2.919583e+01 6.475468e+01 0
4.606361e+01 3.684878e+01 0
6.282703e+01 1.190187e+01 0
6.282702e+01 0.000000e+00 0
6.282702e+01 0.000000e+00 0
0.000000e+00 -5.000000e-05 0
-9.448291e+00 -4.709073e+01 0
-8.540869e-01 -9.506187e+01 0
6.415638e+00 -9.520362e+01 0
1.578666e+01 -9.080125e+01 0
3.333761e+01 -7.692561e+01 0
7.752497e+01 -1.982894e+01 0
1.208382e+02 1.525715e+01 0
9.192586e+01 -5.098173e+00 0
8.778842e+01 4.977758e+01 0
-3.091073e+00 1.604367e+01 0
-6.063012e+01 -4.442531e+01 0
-7.322186e+01 4.367587e+01 0
0.000000e+00 -1.988885e-13 0
0.000000e+00 0.000000e+00 0
0.000000e+00 0.000000e+00 0
2.486107e-13 0.000000e+00 0
3.430827e-13 0.000000e+00 0
3.430827e-13 0.000000e+00 0
3.430827e-13 0.000000e+00 0
0.000000e+00 0.000000e+00 0
-3.107633e-14 -5.000000e+01 0
-5.516049e-15 -1.000000e+02 0
1.134286e-14 -1.000000e+02 0
3.418397e-14 -1.000000e+02 0
8.847932e-14 -1.000000e+02 0
2.237496e-13 -5.000000e+01 0
3.381105e-13 0.000000e+00 0
3.530271e-13 0.000000e+00 0
2.998810e-13 0.000000e+00 0
-2.610412e-14 0.000000e+00 0
-3.629716e-13 0.000000e+00 0
-3.977770e-13 0.000000e+00 0
0.000000e+00 0.000000e+00 0
</DataArray>
<DataArray Name="Type and Neighbourhood" type="Float64" format="ascii" NumberOfComponents="3">
0.000000e+00 0.000000e+00 0
0.000000e+00 0.000000e+00 0
0.000000e+00 0.000000e+00 0
0.000000e+00 0.000000e+00 0
0.000000e+00 0.000000e+00 0
0.000000e+00 0.000000e+00 0
0.000000e+00 0.000000e+00 0