<?xml version="1.0"?>
<VTKFile type="StructuredGrid">
<StructuredGrid WholeExtent="0 19 0 33 0 0 ">
<Piece Extent="0 19 0 33 0 0 ">
<Points>
<DataArray type="Float64" format="ascii" NumberOfComponents="3">
0.000000e+00 0.000000e+00 0.000000e+00
1.052632e-01 0.000000e+00 0.000000e+00
2.105263e-01 0.000000e+00 0.000000e+00
3.157895e-01 0.000000e+00 0.000000e+00
4.210526e-01 0.000000e+00 0.000000e+00
5.263158e-01 0.000000e+00 0.000000e+00
6.315789e-01 0.000000e+00 0.000000e+00
7.368421e-01 0.000000e+00 0.000000e+00
8.421053e-01 0.000000e+00 0.000000e+00
9.473684e-01 0.000000e+00 0.000000e+00
1.052632e+00 0.000000e+00 0.000000e+00
1.157895e+00 0.000000e+00 0.000000e+00
1.263158e+00 0.000000e+00 0.000000e+00
1.368421e+00 0.000000e+00 0.000000e+00
1.473684e+00 0.000000e+00 0.000000e+00
1.578947e+00 0.000000e+00 0.000000e+00
1.684211e+00 0.000000e+00 0.000000e+00
1.789474e+00 0.000000e+00 0.000000e+00
1.894737e+00 0.000000e+00 0.000000e+00
2.000000e+00 0.000000e+00 0.000000e+00
0.000000e+00 1.060606e-01 0.000000e+00
1.052632e-01 1.060606e-01 0.000000e+00
2.105263e-01 1.060606e-01 0.000000e+00
3.157895e-01 1.060606e-01 0.000000e+00
4.210526e-01 1.060606e-01 0.000000e+00
5.263158e-01 1.060606e-01 0.000000e+00
6.315789e-01 1.060606e-01 0.000000e+00
7.368421e-01 1.060606e-01 0.000000e+00
8.421053e-01 1.060606e-01 0.000000e+00
9.473684e-01 1.060606e-01 0.000000e+00
1.052632e+00 1.060606e-01 0.000000e+00
1.157895e+00 1.060606e-01 0.000000e+00
1.263158e+00 1.060606e-01 0.000000e+00
1.368421e+00 1.060606e-01 0.000000e+00
1.473684e+00 1.060606e-01 0.000000e+00
1.578947e+00 1.060606e-01 0.000000e+00
1.684211e+00 1.060606e-01 0.000000e+00
1.789474e+00 1.060606e-01 0.000000e+00
1.894737e+00 1.060606e-01 0.000000e+00
2.000000e+00 1.060606e-01 0.000000e+00
0.000000e+00 2.121212e-01 0.000000e+00
1.052632e-01 2.121212e-01 0.000000e+00
2.105263e-01 2.121212e-01 0.000000e+00
3.157895e-01 2.121212e-01 0.000000e+00
4.210526e-01 2.121212e-01 0.000000e+00
5.263158e-01 2.121212e-01 0.000000e+00
6.315789e-01 2.121212e-01 0.000000e+00
7.368421e-01 2.121212e-01 0.000000e+00
8.421053e-01 2.121212e-01 0.000000e+00
9.473684e-01 2.121212e-01 0.000000e+00
1.052632e+00 2.121212e-01 0.000000e+00
1.157895e+00 2.121212e-01 0.000000e+00
1.263158e+00 2.121212e-01 0.000000e+00
1.368421e+00 2.121212e-01 0.000000e+00
1.473684e+00 2.121212e-01 0.000000e+00
1.578947e+00 2.121212e-01 0.000000e+00
1.684211e+00 2.121212e-01 0.000000e+00
1.789474e+00 2.121212e-01 0.000000e+00
1.894737e+00 2.121212e-01 0.000000e+00
2.000000e+00 2.121212e-01 0.000000e+00
0.000000e+00 3.181818e-01 0.000000e+00
1.052632e-01 3.181818e-01 0.000000e+00
2.105263e-01 3.181818e-01 0.000000e+00
3.157895e-01 3.181818e-01 0.000000e+00
4.210526e-01 3.181818e-01 0.000000e+00
5.263158e-01 3.181818e-01 0.000000e+00
6.315789e-01 3.181818e-01 0.000000e+00
7.368421e-01 3.181818e-01 0.000000e+00
8.421053e-01 3.181818e-01 0.000000e+00
9.473684e-01 3.181818e-01 0.000000e+00
1.052632e+00 3.181818e-01 0.000000e+00
1.157895e+00 3.181818e-01 0.000000e+00
1.263158e+00 3.181818e-01 0.000000e+00
1.368421e+00 3.181818e-01 0.000000e+00
1.473684e+00 3.181818e-01 0.000000e+00
1.578947e+00 3.181818e-01 0.000000e+00
1.684211e+00 3.181818e-01 0.000000e+00
1.789474e+00 3.181818e-01 0.000000e+00
1.894737e+00 3.181818e-01 0.000000e+00
2.000000e+00 3.181818e-01 0.000000e+00
0.000000e+00 4.242424e-01 0.000000e+00
1.052632e-01 4.242424e-01 0.000000e+00
2.105263e-01 4.242424e-01 0.000000e+00
3.157895e-01 4.242424e-01 0.000000e+00
4.210526e-01 4.242424e-01 0.000000e+00
5.263158e-01 4.242424e-01 0.000000e+00
6.315789e-01 4.242424e-01 0.000000e+00
7.368421e-01 4.242424e-01 0.000000e+00
8.421053e-01 4.242424e-01 0.000000e+00
9.473684e-01 4.242424e-01 0.000000e+00
1.052632e+00 4.242424e-01 0.000000e+00
1.157895e+00 4.242424e-01 0.000000e+00
1.263158e+00 4.242424e-01 0.000000e+00
1.368421e+00 4.242424e-01 0.000000e+00
1.473684e+00 4.242424e-01 0.000000e+00
1.578947e+00 4.242424e-01 0.000000e+00
1.684211e+00 4.242424e-01 0.000000e+00
1.789474e+00 4.242424e-01 0.000000e+00
1.894737e+00 4.242424e-01 0.000000e+00
2.000000e+00 4.242424e-01 0.000000e+00
0.000000e+00 5.303030e-01 0.000000e+00
1.052632e-01 5.303030e-01 0.000000e+00
2.105263e-01 5.303030e-01 0.000000e+00
3.157895e-01 5.303030e-01 0.000000e+00
4.210526e-01 5.303030e-01 0.000000e+00
5.263158e-01 5.303030e-01 0.000000e+00
6.315789e-01 5.303030e-01 0.000000e+00
7.368421e-01 5.303030e-01 0.000000e+00
8.421053e-01 5.303030e-01 0.000000e+00
9.473684e-01 5.303030e-01 0.000000e+00
1.052632e+00 5.303030e-01 0.000000e+00
1.157895e+00 5.303030e-01 0.000000e+00
1.263158e+00 5.303030e-01 0.000000e+00
1.368421e+00 5.303030e-01 0.000000e+00
1.473684e+00 5.303030e-01 0.000000e+00
1.578947e+00 5.303030e-01 0.000000e+00
1.684211e+00 5.303030e-01 0.000000e+00
1.789474e+00 5.303030e-01 0.000000e+00
1.894737e+00 5.303030e-01 0.000000e+00
2.000000e+00 5.303030e-01 0.000000e+00
0.000000e+00 6.363636e-01 0.000000e+00
1.052632e-01 6.363636e-01 0.000000e+00
2.105263e-01 6.363636e-01 0.000000e+00
3.157895e-01 6.363636e-01 0.000000e+00
4.210526e-01 6.363636e-01 0.000000e+00
5.263158e-01 6.363636e-01 0.000000e+00
6.315789e-01 6.363636e-01 0.000000e+00
7.368421e-01 6.363636e-01 0.000000e+00
8.421053e-01 6.363636e-01 0.000000e+00
9.473684e-01 6.363636e-01 0.000000e+00
1.052632e+00 6.363636e-01 0.000000e+00
1.157895e+00 6.363636e-01 0.000000e+00
1.263158e+00 6.363636e-01 0.000000e+00
1.368421e+00 6.363636e-01 0.000000e+00
1.473684e+00 6.363636e-01 0.000000e+00
1.578947e+00 6.363636e-01 0.000000e+00
1.684211e+00 6.363636e-01 0.000000e+00
1.789474e+00 6.363636e-01 0.000000e+00
1.894737e+00 6.363636e-01 0.000000e+00
2.000000e+00 6.363636e-01 0.000000e+00
0.000000e+00 7.424242e-01 0.000000e+00
1.052632e-01 7.424242e-01 0.000000e+00
2.105263e-01 7.424242e-01 0.000000e+00
3.157895e-01 7.424242e-01 0.000000e+00
4.210526e-01 7.424242e-01 0.000000e+00
5.263158e-01 7.424242e-01 0.000000e+00
6.315789e-01 7.424242e-01 0.000000e+00
7.368421e-01 7.424242e-01 0.000000e+00
8.421053e-01 7.424242e-01 0.000000e+00
9.473684e-01 7.424242e-01 0.000000e+00
1.052632e+00 7.424242e-01 0.000000e+00
1.157895e+00 7.424242e-01 0.000000e+00
1.263158e+00 7.424242e-01 0.000000e+00
1.368421e+00 7.424242e-01 0.000000e+00
1.473684e+00 7.424242e-01 0.000000e+00
1.578947e+00 7.424242e-01 0.000000e+00
1.684211e+00 7.424242e-01 0.000000e+00
1.789474e+00 7.424242e-01 0.000000e+00
1.894737e+00 7.424242e-01 0.000000e+00
2.000000e+00 7.424242e-01 0.000000e+00
0.000000e+00 8.484848e-01 0.000000e+00
1.052632e-01 8.484848e-01 0.000000e+00
2.105263e-01 8.484848e-01 0.000000e+00
3.157895e-01 8.484848e-01 0.000000e+00
4.210526e-01 8.484848e-01 0.000000e+00
5.263158e-01 8.484848e-01 0.000000e+00
6.315789e-01 8.484848e-01 0.000000e+00
7.368421e-01 8.484848e-01 0.000000e+00
8.421053e-01 8.484848e-01 0.000000e+00
9.473684e-01 8.484848e-01 0.000000e+00
1.052632e+00 8.484848e-01 0.000000e+00
1.157895e+00 8.484848e-01 0.000000e+00
1.263158e+00 8.484848e-01 0.000000e+00
1.368421e+00 8.484848e-01 0.000000e+00
1.473684e+00 8.484848e-01 0.000000e+00
1.578947e+00 8.484848e-01 0.000000e+00
1.684211e+00 8.484848e-01 0.000000e+00
1.789474e+00 8.484848e-01 0.000000e+00
1.894737e+00 8.484848e-01 0.000000e+00
2.000000e+00 8.484848e-01 0.000000e+00
0.000000e+00 9.545455e-01 0.000000e+00
1.052632e-01 9.545455e-01 0.000000e+00
2.105263e-01 9.545455e-01 0.000000e+00
3.157895e-01 9.545455e-01 0.000000e+00
4.210526e-01 9.545455e-01 0.000000e+00
5.263158e-01 9.545455e-01 0.000000e+00
6.315789e-01 9.545455e-01 0.000000e+00
7.368421e-01 9.545455e-01 0.000000e+00
8.421053e-01 9.545455e-01 0.000000e+00
9.473684e-01 9.545455e-01 0.000000e+00
1.052632e+00 9.545455e-01 0.000000e+00
1.157895e+00 9.545455e-01 0.000000e+00
1.263158e+00 9.545455e-01 0.000000e+00
1.368421e+00 9.545455e-01 0.000000e+00
1.473684e+00 9.545455e-01 0.000000e+00
1.578947e+00 9.545455e-01 0.000000e+00
1.684211e+00 9.545455e-01 0.000000e+00
1.789474e+00 9.545455e-01 0.000000e+00
1.894737e+00 9.545455e-01 0.000000e+00
2.000000e+00 9.545455e-01 0.000000e+00
0.000000e+00 1.060606e+00 0.000000e+00
1.052632e-01 1.060606e+00 0.000000e+00
2.105263e-01 1.060606e+00 0.000000e+00
3.157895e-01 1.060606e+00 0.000000e+00
4.210526e-01 1.060606e+00 0.000000e+00
5.263158e-01 1.060606e+00 0.000000e+00
6.315789e-01 1.060606e+00 0.000000e+00
7.368421e-01 1.060606e+00 0.000000e+00
8.421053e-01 1.060606e+00 0.000000e+00
9.473684e-01 1.060606e+00 0.000000e+00
1.052632e+00 1.060606e+00 0.000000e+00
1.157895e+00 1.060606e+00 0.000000e+00
1.263158e+00 1.060606e+00 0.000000e+00
1.368421e+00 1.060606e+00 0.000000e+00
1.473684e+00 1.060606e+00 0.000000e+00
1.578947e+00 1.060606e+00 0.000000e+00
1.684211e+00 1.060606e+00 0.000000e+00
1.789474e+00 1.060606e+00 0.000000e+00
1.894737e+00 1.060606e+00 0.000000e+00
2.000000e+00 1.060606e+00 0.000000e+00
0.000000e+00 1.166667e+00 0.000000e+00
1.052632e-01 1.166667e+00 0.000000e+00
2.105263e-01 1.166667e+00 0.000000e+00
3.157895e-01 1.166667e+00 0.000000e+00
4.210526e-01 1.166667e+00 0.000000e+00
5.263158e-01 1.166667e+00 0.000000e+00
6.315789e-01 1.166667e+00 0.000000e+00
7.368421e-01 1.166667e+00 0.000000e+00
8.421053e-01 1.166667e+00 0.000000e+00
9.473684e-01 1.166667e+00 0.000000e+00
1.052632e+00 1.166667e+00 0.000000e+00
1.157895e+00 1.166667e+00 0.000000e+00
1.263158e+00 1.166667e+00 0.000000e+00
1.368421e+00 1.166667e+00 0.000000e+00
1.473684e+00 1.166667e+00 0.000000e+00
1.578947e+00 1.166667e+00 0.000000e+00
1.684211e+00 1.166667e+00 0.000000e+00
1.789474e+00 1.166667e+00 0.000000e+00
1.894737e+00 1.166667e+00 0.000000e+00
2.000000e+00 1.166667e+00 0.000000e+00
0.000000e+00 1.272727e+00 0.000000e+00
1.052632e-01 1.272727e+00 0.000000e+00
2.105263e-01 1.272727e+00 0.000000e+00
3.157895e-01 1.272727e+00 0.000000e+00
4.210526e-01 1.272727e+00 0.000000e+00
5.263158e-01 1.272727e+00 0.000000e+00
6.315789e-01 1.272727e+00 0.000000e+00
7.368421e-01 1.272727e+00 0.000000e+00
8.421053e-01 1.272727e+00 0.000000e+00
9.473684e-01 1.272727e+00 0.000000e+00
1.052632e+00 1.272727e+00 0.000000e+00
[...]
<PointData>
<DataArray Name="Velocity" type="Float64" format="ascii" NumberOfComponents="3">
0.000000e+00 0.000000e+00 0
0.000000e+00 0.000000e+00 0
0.000000e+00 0.000000e+00 0
0.000000e+00 0.000000e+00 0
0.000000e+00 0.000000e+00 0
0.000000e+00 0.000000e+00 0
0.000000e+00 0.000000e+00 0
0.000000e+00 0.000000e+00 0
0.000000e+00 0.000000e+00 0
0.000000e+00 0.000000e+00 0
0.000000e+00 0.000000e+00 0
1.795704e-16 0.000000e+00 0
0.000000e+00 0.000000e+00 0
0.000000e+00 0.000000e+00 0
0.000000e+00 0.000000e+00 0
-3.055067e-16 0.000000e+00 0
0.000000e+00 0.000000e+00 0
0.000000e+00 0.000000e+00 0
0.000000e+00 0.000000e+00 0
0.000000e+00 0.000000e+00 0
0.000000e+00 0.000000e+00 0
-2.548814e+01 2.584106e+01 0
-3.626167e+01 6.190456e+00 0
-4.629350e+01 -8.275425e-02 0
-5.344346e+01 2.106375e-01 0
-5.304538e+01 -3.433914e+00 0
-4.427221e+01 -8.383183e+00 0
-3.537085e+01 -1.275393e+01 0
-2.031634e+01 -1.225983e+01 0
-9.500019e+00 -1.078421e+01 0
2.073527e+00 -1.003661e+01 0
1.145669e+01 -9.559518e+00 0
2.314213e+01 -1.024180e+01 0
3.206341e+01 -6.741717e+00 0
3.627499e+01 -2.100021e+00 0
3.576306e+01 2.223416e+00 0
3.117528e+01 5.650655e+00 0
2.340834e+01 9.154025e+00 0
1.306761e+01 1.174975e+01 0
0.000000e+00 -2.610412e-14 0
0.000000e+00 0.000000e+00 0
-1.838503e+01 3.653638e+01 0
-3.400057e+01 2.096297e+01 0
-5.046078e+01 1.731196e+01 0
-6.023797e+01 6.803033e+00 0
-5.902778e+01 -9.240735e+00 0
-4.328900e+01 -1.780843e+01 0
-3.675880e+01 -2.413735e+01 0
-2.192510e+01 -2.606682e+01 0
-8.885362e+00 -2.255949e+01 0
2.468131e+00 -2.111547e+01 0
1.432240e+01 -2.122822e+01 0
2.676063e+01 -2.076283e+01 0
3.563488e+01 -1.323235e+01 0
3.947473e+01 -3.727681e+00 0
3.832713e+01 5.138342e+00 0
3.287068e+01 1.244832e+01 0
2.393323e+01 1.824485e+01 0
1.344522e+01 2.358568e+01 0
0.000000e+00 -5.469434e-14 0
0.000000e+00 0.000000e+00 0
-2.323400e+01 6.009921e+01 0
-4.651900e+01 3.850921e+01 0
-5.962416e+01 2.635341e+01 0
-6.369654e+01 8.842540e+00 0
-6.582333e+01 -2.051129e+01 0
-4.012376e+01 -3.082087e+01 0
-3.600803e+01 -3.427968e+01 0
-2.160511e+01 -4.034444e+01 0
-8.005149e+00 -3.536224e+01 0
4.159151e+00 -3.342019e+01 0
1.701972e+01 -3.403605e+01 0
3.017985e+01 -3.171574e+01 0
3.897998e+01 -1.955214e+01 0
4.240865e+01 -4.812659e+00 0
4.053689e+01 8.877496e+00 0
3.418931e+01 2.015359e+01 0
2.453424e+01 2.872664e+01 0
1.279921e+01 3.586429e+01 0
0.000000e+00 -8.452762e-14 0
0.000000e+00 0.000000e+00 0
-1.607852e+01 8.340779e+01 0
-3.062018e+01 5.762882e+01 0
-4.005824e+01 3.461964e+01 0
-4.051294e+01 1.304916e+01 0
-6.273543e+01 -3.299210e+01 0
-3.121034e+01 -4.784961e+01 0
-3.285040e+01 -4.279629e+01 0
-1.959705e+01 -5.428184e+01 0
-6.324276e+00 -4.851894e+01 0
6.013641e+00 -4.632992e+01 0
1.913265e+01 -4.744605e+01 0
3.268538e+01 -4.288946e+01 0
4.102439e+01 -2.555379e+01 0
4.397539e+01 -5.296389e+00 0
4.130513e+01 1.341995e+01 0
3.412509e+01 2.857220e+01 0
2.419928e+01 3.979699e+01 0
1.240609e+01 4.830578e+01 0
0.000000e+00 -1.093887e-13 0
0.000000e+00 0.000000e+00 0
-8.153861e+00 9.095136e+01 0
-7.486845e+00 6.267060e+01 0
-9.820713e+00 3.632113e+01 0
-9.175542e+00 3.169153e+01 0
-2.832291e+01 -2.963041e+01 0
-2.039091e+01 -6.067835e+01 0
-2.800969e+01 -4.598095e+01 0
-1.623638e+01 -6.707151e+01 0
-4.050438e+00 -6.116695e+01 0
7.564157e+00 -5.906997e+01 0
2.022095e+01 -6.090984e+01 0
3.351158e+01 -5.377334e+01 0
4.070485e+01 -3.092769e+01 0
4.337388e+01 -5.095524e+00 0
3.956327e+01 1.880242e+01 0
3.125522e+01 3.738903e+01 0
2.220713e+01 5.061018e+01 0
1.153813e+01 6.024691e+01 0
0.000000e+00 -1.342498e-13 0
0.000000e+00 0.000000e+00 0
-9.671495e+00 9.095136e+01 0
0.000000e+00 5.930830e+01 0
0.000000e+00 2.566383e+01 0
0.000000e+00 0.000000e+00 0
0.000000e+00 -5.181365e+01 0
-1.163957e+01 -5.724462e+01 0
-2.077884e+01 -4.697405e+01 0
-1.153479e+01 -7.842261e+01 0
-1.496038e+00 -7.249978e+01 0
8.483437e+00 -7.078518e+01 0
1.971167e+01 -7.359004e+01 0
3.156923e+01 -6.352854e+01 0
3.657218e+01 -3.549080e+01 0
3.999467e+01 -4.146154e+00 0
3.381386e+01 2.563043e+01 0
2.722039e+01 4.605982e+01 0
1.895651e+01 5.966345e+01 0
1.017372e+01 7.068115e+01 0
0.000000e+00 -1.640830e-13 0
0.000000e+00 0.000000e+00 0
-6.569800e+00 6.368935e+01 0
0.000000e+00 0.000000e+00 0
0.000000e+00 0.000000e+00 0
0.000000e+00 0.000000e+00 0
0.000000e+00 -5.181365e+01 0
-3.508569e+00 -5.256682e+01 0
-9.245585e+00 -4.603448e+01 0
-5.695937e+00 -8.650039e+01 0
9.305672e-01 -8.133683e+01 0
8.460177e+00 -8.043834e+01 0
1.717079e+01 -8.417053e+01 0
2.589148e+01 -7.076157e+01 0
2.663708e+01 -3.941695e+01 0
1.632785e+01 -2.316305e+00 0
1.485247e+01 3.164789e+01 0
2.283341e+01 5.233335e+01 0
1.624034e+01 6.778599e+01 0
8.764562e+00 7.934703e+01 0
0.000000e+00 -1.789997e-13 0
0.000000e+00 0.000000e+00 0
-3.599610e-01 6.392645e+01 0
0.000000e+00 0.000000e+00 0
0.000000e+00 0.000000e+00 0
0.000000e+00 0.000000e+00 0
0.000000e+00 0.000000e+00 0
0.000000e+00 0.000000e+00 0
-2.462751e+00 -4.511122e+01 0
-1.548089e+00 -8.866744e+01 0
2.382081e+00 -8.676314e+01 0
7.410842e+00 -8.714844e+01 0
1.299597e+01 -9.115340e+01 0
1.739168e+01 -7.306655e+01 0
1.253051e+01 -2.585472e+01 0
1.192713e-01 -5.000000e-05 0
2.232417e-14 9.746322e+00 0
1.058306e+01 4.306180e+01 0
1.271185e+01 7.384071e+01 0
7.201865e+00 8.704453e+01 0
0.000000e+00 -2.088330e-13 0
0.000000e+00 0.000000e+00 0
-3.049453e-01 6.405204e+01 0
0.000000e+00 0.000000e+00 0
0.000000e+00 0.000000e+00 0
0.000000e+00 0.000000e+00 0
0.000000e+00 0.000000e+00 0
0.000000e+00 -5.000000e-05 0
-1.324885e+00 -4.619029e+01 0
6.066959e-02 -9.136927e+01 0
2.715894e+00 -9.036363e+01 0
5.876746e+00 -9.113264e+01 0
8.736183e+00 -9.422698e+01 0
9.572401e+00 -7.029258e+01 0
2.167371e+00 -2.201369e+01 0
2.561986e+00 -5.000000e-05 0
-1.080848e+01 9.746322e+00 0
7.370661e+00 3.852343e+01 0
1.019914e+01 7.124035e+01 0
5.679888e+00 9.215518e+01 0
0.000000e+00 -2.088330e-13 0
0.000000e+00 0.000000e+00 0
-2.594767e-01 6.423371e+01 0
0.000000e+00 0.000000e+00 0
0.000000e+00 0.000000e+00 0
0.000000e+00 0.000000e+00 0
0.000000e+00 0.000000e+00 0
0.000000e+00 -5.000000e-05 0
-3.569087e-01 -4.655229e+01 0
5.697178e-01 -9.278381e+01 0
2.547514e+00 -9.262328e+01 0
4.671403e+00 -9.321433e+01 0
6.104543e+00 -9.487705e+01 0
5.459285e+00 -6.644797e+01 0
-1.638879e+01 -1.839354e+01 0
0.000000e+00 8.111293e+00 0
-1.080848e+01 2.564822e+01 0
4.214880e+00 4.804821e+01 0
6.654020e+00 7.559001e+01 0
3.697591e+00 9.732093e+01 0
0.000000e+00 -2.187774e-13 0
0.000000e+00 0.000000e+00 0
-1.786238e-01 6.431348e+01 0
-9.945270e-02 7.200588e-14 0
0.000000e+00 0.000000e+00 0
0.000000e+00 0.000000e+00 0
0.000000e+00 0.000000e+00 0
0.000000e+00 -5.000000e-05 0
-1.926346e+00 -4.718697e+01 0
1.914059e-01 -9.435873e+01 0
2.231246e+00 -9.449639e+01 0
4.166421e+00 -9.471662e+01 0
5.903230e+00 -9.502083e+01 0
7.673987e+00 -4.762885e+01 0
-1.058121e+01 -5.000000e-05 0
0.000000e+00 0.000000e+00 0
-1.053822e-14 -3.500000e-04 0
-4.995781e+00 2.634032e+01 0
9.776095e-01 7.178275e+01 0
1.415811e+00 9.885961e+01 0
0.000000e+00 -2.287218e-13 0
0.000000e+00 0.000000e+00 0
-3.654350e-01 9.880526e+01 0
-3.654350e-01 3.439393e+01 0
0.000000e+00 0.000000e+00 0
0.000000e+00 0.000000e+00 0
0.000000e+00 0.000000e+00 0
0.000000e+00 -5.000000e-05 0
-2.277622e+00 -4.869894e+01 0
3.424882e-02 -9.698575e+01 0
2.022538e+00 -9.662841e+01 0
3.862997e+00 -9.691414e+01 0
5.815146e+00 -9.841119e+01 0
8.339490e+00 -4.983865e+01 0
8.339490e+00 -5.000000e-05 0
0.000000e+00 0.000000e+00 0
-1.056212e-14 -3.500000e-04 0
-5.007111e+00 2.465249e+01 0
-1.862481e+00 6.929004e+01 0
6.510731e-02 9.830595e+01 0
0.000000e+00 -2.287218e-13 0
0.000000e+00 0.000000e+00 0
-5.603933e-01 9.907325e+01 0
-5.603933e-01 3.439393e+01 0
0.000000e+00 0.000000e+00 0
0.000000e+00 0.000000e+00 0
0.000000e+00 0.000000e+00 0
0.000000e+00 -5.000000e-05 0
-8.479312e-01 -4.952340e+01 0
4.156745e-01 -9.869851e+01 0
1.963883e+00 -9.835415e+01 0
3.449979e+00 -9.853796e+01 0
4.773389e+00 -9.953124e+01 0
5.383113e+00 -5.017232e+01 0
5.385694e+00 -5.000000e-05 0
0.000000e+00 0.000000e+00 0
-6.970878e-15 -3.500000e-04 0
-3.304636e+00 2.342886e+01 0
-2.286155e+00 6.692909e+01 0
-3.998941e-01 9.698301e+01 0
0.000000e+00 -2.287218e-13 0
0.000000e+00 0.000000e+00 0
-8.582870e-01 9.936989e+01 0
2.104969e+01 3.439393e+01 0
0.000000e+00 0.000000e+00 0
0.000000e+00 0.000000e+00 0
0.000000e+00 0.000000e+00 0
0.000000e+00 -5.000000e-05 0
-3.215183e-01 -5.000724e+01 0
6.806776e-01 -9.985399e+01 0
1.968410e+00 -9.968570e+01 0
3.204027e+00 -9.974493e+01 0
4.200800e+00 -1.003590e+02 0
4.689885e+00 -5.045559e+01 0
4.692466e+00 -2.650000e-03 0
0.000000e+00 0.000000e+00 0
-1.738688e-15 -3.500000e-04 0
-8.242478e-01 2.383232e+01 0
-1.514606e+00 6.656932e+01 0
-3.646174e-01 9.600247e+01 0
0.000000e+00 -2.287218e-13 0
0.000000e+00 0.000000e+00 0
-1.073944e+00 7.786409e+01 0
2.083404e+01 1.231999e+01 0
0.000000e+00 0.000000e+00 0
0.000000e+00 0.000000e+00 0
0.000000e+00 0.000000e+00 0
0.000000e+00 -5.000000e-05 0
-4.027564e-01 -5.058481e+01 0
7.503390e-01 -1.010574e+02 0
2.025958e+00 -1.008966e+02 0
3.200716e+00 -1.007873e+02 0
4.116013e+00 -1.010284e+02 0
4.548188e+00 -5.066771e+01 0
4.548188e+00 -2.650000e-03 0
0.000000e+00 0.000000e+00 0
-3.461834e-16 -3.500000e-04 0
-1.641128e-01 2.430741e+01 0
-1.450295e+00 6.664894e+01 0
-3.421993e-01 9.545693e+01 0
0.000000e+00 -2.287218e-13 0
0.000000e+00 0.000000e+00 0
-1.021652e+00 7.837803e+01 0
-1.021652e+00 1.231999e+01 0
0.000000e+00 0.000000e+00 0
0.000000e+00 0.000000e+00 0
0.000000e+00 0.000000e+00 0
0.000000e+00 -5.000000e-05 0
-5.057985e-01 -5.122813e+01 0
7.842667e-01 -1.023602e+02 0
2.186150e+00 -1.021546e+02 0
3.461265e+00 -1.018508e+02 0
4.468957e+00 -1.017166e+02 0
5.017834e+00 -5.089104e+01 0
5.017834e+00 -2.650000e-03 0
0.000000e+00 0.000000e+00 0
0.000000e+00 0.000000e+00 0
0.000000e+00 2.554332e+01 0
-1.838390e+00 6.727296e+01 0
-4.090470e-01 9.465067e+01 0
0.000000e+00 -2.287218e-13 0
0.000000e+00 0.000000e+00 0
-1.036219e+00 7.889349e+01 0
-1.036219e+00 1.231999e+01 0
0.000000e+00 0.000000e+00 0
0.000000e+00 0.000000e+00 0
0.000000e+00 0.000000e+00 0
0.000000e+00 -5.000000e-05 0
-3.674773e-01 -5.196742e+01 0
8.576282e-01 -1.038525e+02 0
2.475060e+00 -1.035939e+02 0
3.993790e+00 -1.030874e+02 0
5.234182e+00 -1.025967e+02 0
5.988543e+00 -5.122074e+01 0
5.988543e+00 -2.650000e-03 0
0.000000e+00 0.000000e+00 0
-1.206381e-15 0.000000e+00 0
-5.719010e-01 2.476446e+01 0
-1.819371e+00 6.578274e+01 0
-3.784814e-01 9.372189e+01 0
0.000000e+00 -2.187774e-13 0
0.000000e+00 0.000000e+00 0
-1.039506e+00 7.942209e+01 0
-1.039506e+00 1.231999e+01 0
0.000000e+00 0.000000e+00 0
0.000000e+00 0.000000e+00 0
0.000000e+00 0.000000e+00 0
0.000000e+00 -5.000000e-05 0
-3.356094e-01 -5.256869e+01 0
8.304469e-01 -1.053304e+02 0
2.863015e+00 -1.053146e+02 0
4.809373e+00 -1.046308e+02 0
6.447358e+00 -1.037265e+02 0
7.453046e+00 -5.165112e+01 0
7.453046e+00 -2.650000e-03 0
0.000000e+00 0.000000e+00 0
-1.680311e-15 2.616833e+01 0
-7.965735e-01 5.136137e+01 0
-1.445445e+00 6.547868e+01 0
-2.247455e-01 9.282531e+01 0
0.000000e+00 -2.187774e-13 0
0.000000e+00 0.000000e+00 0
-9.463732e-01 7.994087e+01 0
-9.463732e-01 1.231999e+01 0
0.000000e+00 0.000000e+00 0
0.000000e+00 0.000000e+00 0
0.000000e+00 0.000000e+00 0
0.000000e+00 -5.000000e-05 0
-2.960253e-01 -5.327390e+01 0
6.125827e-01 -1.072070e+02 0
3.332611e+00 -1.076030e+02 0
5.939158e+00 -1.066989e+02 0
8.187145e+00 -1.052604e+02 0
9.388315e+00 -5.223405e+01 0
9.388315e+00 -2.650000e-03 0
0.000000e+00 0.000000e+00 0
-4.739297e-16 2.616833e+01 0
-2.246726e-01 5.180687e+01 0
-1.367679e+00 6.542688e+01 0
-2.339611e-01 9.226550e+01 0
0.000000e+00 -2.187774e-13 0
0.000000e+00 0.000000e+00 0
-6.701436e-01 8.037564e+01 0
-6.701436e-01 1.231999e+01 0
0.000000e+00 0.000000e+00 0
0.000000e+00 0.000000e+00 0
0.000000e+00 0.000000e+00 0
0.000000e+00 -5.000000e-05 0
-9.805044e-02 -5.365426e+01 0
1.985532e-01 -1.091566e+02 0
3.896541e+00 -1.106815e+02 0
7.436774e+00 -1.095222e+02 0
1.055524e+01 -1.072018e+02 0
1.121049e+01 -5.286139e+01 0
6.158845e+01 -2.650000e-03 0
0.000000e+00 0.000000e+00 0
0.000000e+00 0.000000e+00 0
0.000000e+00 2.554332e+01 0
-2.200227e+00 6.478955e+01 0
-7.590740e-01 9.155017e+01 0
0.000000e+00 -2.187774e-13 0
0.000000e+00 0.000000e+00 0
-2.081640e-01 8.061609e+01 0
-2.081640e-01 1.231999e+01 0
0.000000e+00 0.000000e+00 0
0.000000e+00 0.000000e+00 0
0.000000e+00 0.000000e+00 0
0.000000e+00 -5.000000e-05 0
-8.862432e-02 -5.379271e+01 0
-3.222036e-01 -1.114518e+02 0
4.564928e+00 -1.148960e+02 0
9.372815e+00 -1.134080e+02 0
1.411766e+01 -1.090627e+02 0
1.562795e+01 -1.036539e+02 0
6.600591e+01 -5.076226e+01 0
0.000000e+00 0.000000e+00 0
0.000000e+00 0.000000e+00 0
0.000000e+00 2.554332e+01 0
-3.012534e+00 6.409586e+01 0
-2.213345e+00 9.026488e+01 0
0.000000e+00 -2.187774e-13 0
0.000000e+00 0.000000e+00 0
3.056041e-01 8.058538e+01 0
3.056041e-01 1.231999e+01 0
0.000000e+00 0.000000e+00 0
0.000000e+00 0.000000e+00 0
0.000000e+00 0.000000e+00 0
0.000000e+00 -5.000000e-05 0
-8.152234e-02 -5.369759e+01 0
-6.458372e-01 -1.141241e+02 0
5.198432e+00 -1.204500e+02 0
1.138702e+01 -1.191472e+02 0
1.835439e+01 -1.135043e+02 0
2.070355e+01 -1.051427e+02 0
1.484474e+02 -5.076226e+01 0
0.000000e+00 0.000000e+00 0
0.000000e+00 0.000000e+00 0
0.000000e+00 2.554332e+01 0
-1.005911e+01 6.421211e+01 0
-5.485005e+00 8.874262e+01 0
0.000000e+00 -2.088330e-13 0
0.000000e+00 0.000000e+00 0
7.314163e-01 8.030817e+01 0
7.314163e-01 1.231999e+01 0
0.000000e+00 0.000000e+00 0
0.000000e+00 0.000000e+00 0
0.000000e+00 0.000000e+00 0
0.000000e+00 -5.000000e-05 0
-1.548422e+00 -5.358101e+01 0
-9.610077e-01 -1.171286e+02 0
5.294255e+00 -1.270200e+02 0
1.258045e+01 -1.266636e+02 0
2.198924e+01 -1.184498e+02 0
3.006931e+01 -2.347324e+02 0
1.578131e+02 -1.794738e+02 0
0.000000e+00 0.000000e+00 0
0.000000e+00 0.000000e+00 0
0.000000e+00 2.554332e+01 0
-9.959896e+00 5.985633e+01 0
-7.496523e+00 8.049879e+01 0
0.000000e+00 -1.988885e-13 0
0.000000e+00 0.000000e+00 0
1.018243e+00 7.984842e+01 0
1.018243e+00 1.231999e+01 0
0.000000e+00 0.000000e+00 0
0.000000e+00 0.000000e+00 0
0.000000e+00 0.000000e+00 0
0.000000e+00 -5.000000e-05 0
-3.377808e+00 -5.470215e+01 0
-1.532392e+00 -1.214313e+02 0
4.085145e+00 -1.340940e+02 0
1.129832e+01 -1.359687e+02 0
2.108214e+01 -1.311257e+02 0
3.330788e+01 -2.419956e+02 0
3.330788e+01 -1.794738e+02 0
0.000000e+00 0.000000e+00 0
0.000000e+00 0.000000e+00 0
0.000000e+00 2.554332e+01 0
-2.971523e+00 6.203240e+01 0
-7.680991e+00 7.900959e+01 0
0.000000e+00 -1.889441e-13 0
0.000000e+00 0.000000e+00 0
1.152975e+00 7.928221e+01 0
1.152975e+00 1.231999e+01 0
0.000000e+00 0.000000e+00 0
0.000000e+00 0.000000e+00 0
0.000000e+00 0.000000e+00 0
0.000000e+00 -5.000000e-05 0
-2.894152e+00 -5.588992e+01 0
-2.582428e+00 -1.250976e+02 0
9.005693e-01 -1.399479e+02 0
6.098550e+00 -1.437894e+02 0
1.232488e+01 -1.406261e+02 0
2.195503e+01 -2.470508e+02 0
1.430379e+01 -1.794738e+02 0
0.000000e+00 0.000000e+00 0
1.530056e-12 0.000000e+00 0
7.253432e+02 2.554332e+01 0
-4.499583e+00 6.474086e+01 0
-6.215224e+00 7.764413e+01 0
0.000000e+00 -1.690552e-13 0
0.000000e+00 0.000000e+00 0
1.146210e+00 7.868671e+01 0
1.146210e+00 1.231999e+01 0
0.000000e+00 0.000000e+00 0
0.000000e+00 0.000000e+00 0
0.000000e+00 0.000000e+00 0
0.000000e+00 -5.000000e-05 0
-1.965638e+00 -5.555028e+01 0
-4.630141e+00 -1.257888e+02 0
-4.671149e+00 -1.428407e+02 0
-4.141520e+00 -1.474796e+02 0
-1.029619e+01 -1.471023e+02 0
-3.065888e+01 -7.222487e+01 0
-9.801998e+01 -9.544552e-13 0
6.410201e+02 -5.941857e+01 0
6.410201e+02 -3.387530e+01 0
1.450686e+03 5.108659e+01 0
-3.053225e+00 6.397269e+01 0
-2.668546e-01 7.468758e+01 0
0.000000e+00 -1.541386e-13 0
0.000000e+00 0.000000e+00 0
1.040323e+00 7.812732e+01 0
1.040323e+00 1.231999e+01 0
0.000000e+00 0.000000e+00 0
0.000000e+00 0.000000e+00 0
0.000000e+00 0.000000e+00 0
0.000000e+00 -5.000000e-05 0
-2.029018e+00 -5.388141e+01 0
-7.829317e+00 -1.230478e+02 0
-1.242792e+01 -1.404403e+02 0
-1.724268e+01 -1.381217e+02 0
-3.111835e+01 -1.146302e+02 0
-6.060405e+01 -1.617569e+02 0
-1.203139e+02 -2.279499e+02 0
6.410201e+02 -1.733939e+02 0
6.410201e+02 -1.188372e+02 0
7.253432e+02 -5.941862e+01 0
0.000000e+00 3.545156e+01 0
1.481537e+01 7.357693e+01 0
0.000000e+00 -1.591108e-13 0
0.000000e+00 0.000000e+00 0
9.563793e-01 7.763851e+01 0
9.563793e-01 1.231999e+01 0
0.000000e+00 0.000000e+00 0
0.000000e+00 0.000000e+00 0
0.000000e+00 0.000000e+00 0
0.000000e+00 -5.000000e-05 0
-3.260649e+00 -5.052909e+01 0
-1.191932e+01 -1.161342e+02 0
-2.356985e+01 -1.333561e+02 0
-3.815506e+01 -1.286475e+02 0
-5.790552e+01 -1.041347e+02 0
-8.088838e+01 -1.572127e+02 0
-2.229393e+01 -1.139746e+02 0
0.000000e+00 0.000000e+00 0
0.000000e+00 0.000000e+00 0
0.000000e+00 0.000000e+00 0
-2.594485e+01 5.430272e+00 0
1.288291e+01 5.643612e+01 0
0.000000e+00 -2.088330e-13 0
0.000000e+00 0.000000e+00 0
1.368981e+00 7.716369e+01 0
1.368981e+00 1.231999e+01 0
0.000000e+00 0.000000e+00 0
0.000000e+00 0.000000e+00 0
0.000000e+00 0.000000e+00 0
0.000000e+00 -5.000000e-05 0
-7.126357e+00 -4.606905e+01 0
-1.505421e+01 -1.034967e+02 0
-3.681268e+01 -1.140058e+02 0
-7.551824e+01 -1.035259e+02 0
-1.290067e+02 -7.157311e+01 0
-1.760782e+02 -2.462530e+01 0
-1.370389e+02 0.000000e+00 0
-1.422583e+02 0.000000e+00 0
-1.422583e+02 0.000000e+00 0
-1.420946e+02 3.355615e+01 0
1.571101e-01 1.331289e+01 0
4.569555e+00 3.073500e+01 0
0.000000e+00 -2.088330e-13 0
0.000000e+00 0.000000e+00 0
2.832152e+00 7.625916e+01 0
2.832152e+00 1.231999e+01 0
0.000000e+00 0.000000e+00 0
0.000000e+00 0.000000e+00 0
0.000000e+00 0.000000e+00 0
0.000000e+00 -5.000000e-05 0
-9.742474e+00 -4.333851e+01 0
-1.209797e+01 -8.702029e+01 0
-2.543612e+01 -7.243398e+01 0
-4.561244e+01 -3.575509e+01 0
-6.802694e+01 -2.974971e+00 0
-7.894898e+01 2.160645e+01 0
-1.002105e+02 3.755916e+01 0
-1.054298e+02 1.998039e+01 0
-1.422583e+02 -1.668877e-01 0
-1.420946e+02 -4.167447e+01 0
8.451435e+01 -4.008321e+01 0
2.772902e+01 5.703469e+01 0
0.000000e+00 -2.287218e-13 0
0.000000e+00 0.000000e+00 0
3.113024e+01 7.431008e+01 0
2.778413e+01 1.231999e+01 0
2.584972e+01 0.000000e+00 0
0.000000e+00 0.000000e+00 0
0.000000e+00 0.000000e+00 0
0.000000e+00 -5.000000e-05 0
-1.048727e+01 -4.417235e+01 0
-5.663134e+00 -8.816075e+01 0
-1.959853e+00 -8.023741e+01 0
1.428785e+01 -6.061246e+01 0
4.823756e+01 -3.814605e+01 0
9.107586e+01 5.252400e+00 0
9.355571e+01 3.901563e+01 0
9.355571e+01 1.998069e+01 0
0.000000e+00 0.000000e+00 0
0.000000e+00 -5.797320e+01 0
5.841239e+01 -7.929832e+01 0
-4.515386e+00 5.759223e+01 0
0.000000e+00 -3.381105e-13 0
0.000000e+00 5.328456e-02 0
2.919583e+01 4.811531e+01 0
5.546608e+01 2.744408e+01 0
6.727846e+01 1.190187e+01 0
0.000000e+00 0.000000e+00 0
0.000000e+00 0.000000e+00 0
0.000000e+00 -5.000000e-05 0
-5.690781e+00 -4.820704e+01 0
-2.151413e+00 -9.562016e+01 0
3.260305e+00 -9.253611e+01 0
1.690796e+01 -8.633279e+01 0
4.235169e+01 -8.034471e+01 0
7.829684e+01 -2.431781e+01 0
9.718866e+01 3.479773e+01 0
1.170191e+02 1.998069e+01 0
0.000000e+00 0.000000e+00 0
0.000000e+00 -5.797320e+01 0
-5.841219e+01 -5.064023e+01 0
-7.832399e+01 5.839340e+01 0
0.000000e+00 -2.187774e-13 0
0.000000e+00 0.000000e+00 0
0.000000e+00 0.000000e+00 0
2.486107e-13 0.000000e+00 0
3.480549e-13 0.000000e+00 0
0.000000e+00 0.000000e+00 0
0.000000e+00 0.000000e+00 0
0.000000e+00 0.000000e+00 0
0.000000e+00 -5.000000e+01 0
-5.127595e-15 -1.000000e+02 0
1.180901e-14 -1.000000e+02 0
5.220824e-14 -1.000000e+02 0
1.271560e-13 -1.000000e+02 0
2.187774e-13 -5.000000e+01 0
3.381105e-13 0.000000e+00 0
5.071657e-13 0.000000e+00 0
0.000000e+00 0.000000e+00 0
0.000000e+00 0.000000e+00 0
-4.872769e-13 0.000000e+00 0
-4.276103e-13 0.000000e+00 0
0.000000e+00 0.000000e+00 0
</DataArray>
<DataArray Name="Type and Neighbourhood" type="Float64" format="ascii" NumberOfComponents="3">
0.000000e+00 0.000000e+00 0
0.000000e+00 0.000000e+00 0
0.000000e+00 0.000000e+00 0
0.000000e+00 0.000000e+00 0
0.000000e+00 0.000000e+00 0
0.000000e+00 0.000000e+00 0
0.000000e+00 0.000000e+00 0
0.000000e+00 0.000000e+00 0