<?xml version="1.0"?>
<VTKFile type="StructuredGrid">
<StructuredGrid WholeExtent="0 19 0 33 0 0 ">
<Piece Extent="0 19 0 33 0 0 ">
<Points>
<DataArray type="Float64" format="ascii" NumberOfComponents="3">
0.000000e+00 0.000000e+00 0.000000e+00
1.052632e-01 0.000000e+00 0.000000e+00
2.105263e-01 0.000000e+00 0.000000e+00
3.157895e-01 0.000000e+00 0.000000e+00
4.210526e-01 0.000000e+00 0.000000e+00
5.263158e-01 0.000000e+00 0.000000e+00
6.315789e-01 0.000000e+00 0.000000e+00
7.368421e-01 0.000000e+00 0.000000e+00
8.421053e-01 0.000000e+00 0.000000e+00
9.473684e-01 0.000000e+00 0.000000e+00
1.052632e+00 0.000000e+00 0.000000e+00
1.157895e+00 0.000000e+00 0.000000e+00
1.263158e+00 0.000000e+00 0.000000e+00
1.368421e+00 0.000000e+00 0.000000e+00
1.473684e+00 0.000000e+00 0.000000e+00
1.578947e+00 0.000000e+00 0.000000e+00
1.684211e+00 0.000000e+00 0.000000e+00
1.789474e+00 0.000000e+00 0.000000e+00
1.894737e+00 0.000000e+00 0.000000e+00
2.000000e+00 0.000000e+00 0.000000e+00
0.000000e+00 1.060606e-01 0.000000e+00
1.052632e-01 1.060606e-01 0.000000e+00
2.105263e-01 1.060606e-01 0.000000e+00
3.157895e-01 1.060606e-01 0.000000e+00
4.210526e-01 1.060606e-01 0.000000e+00
5.263158e-01 1.060606e-01 0.000000e+00
6.315789e-01 1.060606e-01 0.000000e+00
7.368421e-01 1.060606e-01 0.000000e+00
8.421053e-01 1.060606e-01 0.000000e+00
9.473684e-01 1.060606e-01 0.000000e+00
1.052632e+00 1.060606e-01 0.000000e+00
1.157895e+00 1.060606e-01 0.000000e+00
1.263158e+00 1.060606e-01 0.000000e+00
1.368421e+00 1.060606e-01 0.000000e+00
1.473684e+00 1.060606e-01 0.000000e+00
1.578947e+00 1.060606e-01 0.000000e+00
1.684211e+00 1.060606e-01 0.000000e+00
1.789474e+00 1.060606e-01 0.000000e+00
1.894737e+00 1.060606e-01 0.000000e+00
2.000000e+00 1.060606e-01 0.000000e+00
0.000000e+00 2.121212e-01 0.000000e+00
1.052632e-01 2.121212e-01 0.000000e+00
2.105263e-01 2.121212e-01 0.000000e+00
3.157895e-01 2.121212e-01 0.000000e+00
4.210526e-01 2.121212e-01 0.000000e+00
5.263158e-01 2.121212e-01 0.000000e+00
6.315789e-01 2.121212e-01 0.000000e+00
7.368421e-01 2.121212e-01 0.000000e+00
8.421053e-01 2.121212e-01 0.000000e+00
9.473684e-01 2.121212e-01 0.000000e+00
1.052632e+00 2.121212e-01 0.000000e+00
1.157895e+00 2.121212e-01 0.000000e+00
1.263158e+00 2.121212e-01 0.000000e+00
1.368421e+00 2.121212e-01 0.000000e+00
1.473684e+00 2.121212e-01 0.000000e+00
1.578947e+00 2.121212e-01 0.000000e+00
1.684211e+00 2.121212e-01 0.000000e+00
1.789474e+00 2.121212e-01 0.000000e+00
1.894737e+00 2.121212e-01 0.000000e+00
2.000000e+00 2.121212e-01 0.000000e+00
0.000000e+00 3.181818e-01 0.000000e+00
1.052632e-01 3.181818e-01 0.000000e+00
2.105263e-01 3.181818e-01 0.000000e+00
3.157895e-01 3.181818e-01 0.000000e+00
4.210526e-01 3.181818e-01 0.000000e+00
5.263158e-01 3.181818e-01 0.000000e+00
6.315789e-01 3.181818e-01 0.000000e+00
7.368421e-01 3.181818e-01 0.000000e+00
8.421053e-01 3.181818e-01 0.000000e+00
9.473684e-01 3.181818e-01 0.000000e+00
1.052632e+00 3.181818e-01 0.000000e+00
1.157895e+00 3.181818e-01 0.000000e+00
1.263158e+00 3.181818e-01 0.000000e+00
1.368421e+00 3.181818e-01 0.000000e+00
1.473684e+00 3.181818e-01 0.000000e+00
1.578947e+00 3.181818e-01 0.000000e+00
1.684211e+00 3.181818e-01 0.000000e+00
1.789474e+00 3.181818e-01 0.000000e+00
1.894737e+00 3.181818e-01 0.000000e+00
2.000000e+00 3.181818e-01 0.000000e+00
0.000000e+00 4.242424e-01 0.000000e+00
1.052632e-01 4.242424e-01 0.000000e+00
2.105263e-01 4.242424e-01 0.000000e+00
3.157895e-01 4.242424e-01 0.000000e+00
4.210526e-01 4.242424e-01 0.000000e+00
5.263158e-01 4.242424e-01 0.000000e+00
6.315789e-01 4.242424e-01 0.000000e+00
7.368421e-01 4.242424e-01 0.000000e+00
8.421053e-01 4.242424e-01 0.000000e+00
9.473684e-01 4.242424e-01 0.000000e+00
1.052632e+00 4.242424e-01 0.000000e+00
1.157895e+00 4.242424e-01 0.000000e+00
1.263158e+00 4.242424e-01 0.000000e+00
1.368421e+00 4.242424e-01 0.000000e+00
1.473684e+00 4.242424e-01 0.000000e+00
1.578947e+00 4.242424e-01 0.000000e+00
1.684211e+00 4.242424e-01 0.000000e+00
1.789474e+00 4.242424e-01 0.000000e+00
1.894737e+00 4.242424e-01 0.000000e+00
2.000000e+00 4.242424e-01 0.000000e+00
0.000000e+00 5.303030e-01 0.000000e+00
1.052632e-01 5.303030e-01 0.000000e+00
2.105263e-01 5.303030e-01 0.000000e+00
3.157895e-01 5.303030e-01 0.000000e+00
4.210526e-01 5.303030e-01 0.000000e+00
5.263158e-01 5.303030e-01 0.000000e+00
6.315789e-01 5.303030e-01 0.000000e+00
7.368421e-01 5.303030e-01 0.000000e+00
8.421053e-01 5.303030e-01 0.000000e+00
9.473684e-01 5.303030e-01 0.000000e+00
1.052632e+00 5.303030e-01 0.000000e+00
1.157895e+00 5.303030e-01 0.000000e+00
1.263158e+00 5.303030e-01 0.000000e+00
1.368421e+00 5.303030e-01 0.000000e+00
1.473684e+00 5.303030e-01 0.000000e+00
1.578947e+00 5.303030e-01 0.000000e+00
1.684211e+00 5.303030e-01 0.000000e+00
1.789474e+00 5.303030e-01 0.000000e+00
1.894737e+00 5.303030e-01 0.000000e+00
2.000000e+00 5.303030e-01 0.000000e+00
0.000000e+00 6.363636e-01 0.000000e+00
1.052632e-01 6.363636e-01 0.000000e+00
2.105263e-01 6.363636e-01 0.000000e+00
3.157895e-01 6.363636e-01 0.000000e+00
4.210526e-01 6.363636e-01 0.000000e+00
5.263158e-01 6.363636e-01 0.000000e+00
6.315789e-01 6.363636e-01 0.000000e+00
7.368421e-01 6.363636e-01 0.000000e+00
8.421053e-01 6.363636e-01 0.000000e+00
9.473684e-01 6.363636e-01 0.000000e+00
1.052632e+00 6.363636e-01 0.000000e+00
1.157895e+00 6.363636e-01 0.000000e+00
1.263158e+00 6.363636e-01 0.000000e+00
1.368421e+00 6.363636e-01 0.000000e+00
1.473684e+00 6.363636e-01 0.000000e+00
1.578947e+00 6.363636e-01 0.000000e+00
1.684211e+00 6.363636e-01 0.000000e+00
1.789474e+00 6.363636e-01 0.000000e+00
1.894737e+00 6.363636e-01 0.000000e+00
2.000000e+00 6.363636e-01 0.000000e+00
0.000000e+00 7.424242e-01 0.000000e+00
1.052632e-01 7.424242e-01 0.000000e+00
2.105263e-01 7.424242e-01 0.000000e+00
3.157895e-01 7.424242e-01 0.000000e+00
4.210526e-01 7.424242e-01 0.000000e+00
5.263158e-01 7.424242e-01 0.000000e+00
6.315789e-01 7.424242e-01 0.000000e+00
7.368421e-01 7.424242e-01 0.000000e+00
8.421053e-01 7.424242e-01 0.000000e+00
9.473684e-01 7.424242e-01 0.000000e+00
1.052632e+00 7.424242e-01 0.000000e+00
1.157895e+00 7.424242e-01 0.000000e+00
1.263158e+00 7.424242e-01 0.000000e+00
1.368421e+00 7.424242e-01 0.000000e+00
1.473684e+00 7.424242e-01 0.000000e+00
1.578947e+00 7.424242e-01 0.000000e+00
1.684211e+00 7.424242e-01 0.000000e+00
1.789474e+00 7.424242e-01 0.000000e+00
1.894737e+00 7.424242e-01 0.000000e+00
2.000000e+00 7.424242e-01 0.000000e+00
0.000000e+00 8.484848e-01 0.000000e+00
1.052632e-01 8.484848e-01 0.000000e+00
2.105263e-01 8.484848e-01 0.000000e+00
3.157895e-01 8.484848e-01 0.000000e+00
4.210526e-01 8.484848e-01 0.000000e+00
5.263158e-01 8.484848e-01 0.000000e+00
6.315789e-01 8.484848e-01 0.000000e+00
7.368421e-01 8.484848e-01 0.000000e+00
8.421053e-01 8.484848e-01 0.000000e+00
9.473684e-01 8.484848e-01 0.000000e+00
1.052632e+00 8.484848e-01 0.000000e+00
1.157895e+00 8.484848e-01 0.000000e+00
1.263158e+00 8.484848e-01 0.000000e+00
1.368421e+00 8.484848e-01 0.000000e+00
1.473684e+00 8.484848e-01 0.000000e+00
1.578947e+00 8.484848e-01 0.000000e+00
1.684211e+00 8.484848e-01 0.000000e+00
1.789474e+00 8.484848e-01 0.000000e+00
1.894737e+00 8.484848e-01 0.000000e+00
2.000000e+00 8.484848e-01 0.000000e+00
0.000000e+00 9.545455e-01 0.000000e+00
1.052632e-01 9.545455e-01 0.000000e+00
2.105263e-01 9.545455e-01 0.000000e+00
3.157895e-01 9.545455e-01 0.000000e+00
4.210526e-01 9.545455e-01 0.000000e+00
5.263158e-01 9.545455e-01 0.000000e+00
6.315789e-01 9.545455e-01 0.000000e+00
7.368421e-01 9.545455e-01 0.000000e+00
8.421053e-01 9.545455e-01 0.000000e+00
9.473684e-01 9.545455e-01 0.000000e+00
1.052632e+00 9.545455e-01 0.000000e+00
1.157895e+00 9.545455e-01 0.000000e+00
1.263158e+00 9.545455e-01 0.000000e+00
1.368421e+00 9.545455e-01 0.000000e+00
1.473684e+00 9.545455e-01 0.000000e+00
1.578947e+00 9.545455e-01 0.000000e+00
1.684211e+00 9.545455e-01 0.000000e+00
1.789474e+00 9.545455e-01 0.000000e+00
1.894737e+00 9.545455e-01 0.000000e+00
2.000000e+00 9.545455e-01 0.000000e+00
0.000000e+00 1.060606e+00 0.000000e+00
1.052632e-01 1.060606e+00 0.000000e+00
2.105263e-01 1.060606e+00 0.000000e+00
3.157895e-01 1.060606e+00 0.000000e+00
4.210526e-01 1.060606e+00 0.000000e+00
5.263158e-01 1.060606e+00 0.000000e+00
6.315789e-01 1.060606e+00 0.000000e+00
7.368421e-01 1.060606e+00 0.000000e+00
8.421053e-01 1.060606e+00 0.000000e+00
9.473684e-01 1.060606e+00 0.000000e+00
1.052632e+00 1.060606e+00 0.000000e+00
1.157895e+00 1.060606e+00 0.000000e+00
1.263158e+00 1.060606e+00 0.000000e+00
1.368421e+00 1.060606e+00 0.000000e+00
1.473684e+00 1.060606e+00 0.000000e+00
1.578947e+00 1.060606e+00 0.000000e+00
1.684211e+00 1.060606e+00 0.000000e+00
1.789474e+00 1.060606e+00 0.000000e+00
1.894737e+00 1.060606e+00 0.000000e+00
2.000000e+00 1.060606e+00 0.000000e+00
0.000000e+00 1.166667e+00 0.000000e+00
1.052632e-01 1.166667e+00 0.000000e+00
2.105263e-01 1.166667e+00 0.000000e+00
3.157895e-01 1.166667e+00 0.000000e+00
4.210526e-01 1.166667e+00 0.000000e+00
5.263158e-01 1.166667e+00 0.000000e+00
6.315789e-01 1.166667e+00 0.000000e+00
7.368421e-01 1.166667e+00 0.000000e+00
8.421053e-01 1.166667e+00 0.000000e+00
9.473684e-01 1.166667e+00 0.000000e+00
1.052632e+00 1.166667e+00 0.000000e+00
1.157895e+00 1.166667e+00 0.000000e+00
1.263158e+00 1.166667e+00 0.000000e+00
1.368421e+00 1.166667e+00 0.000000e+00
1.473684e+00 1.166667e+00 0.000000e+00
1.578947e+00 1.166667e+00 0.000000e+00
1.684211e+00 1.166667e+00 0.000000e+00
1.789474e+00 1.166667e+00 0.000000e+00
1.894737e+00 1.166667e+00 0.000000e+00
2.000000e+00 1.166667e+00 0.000000e+00
0.000000e+00 1.272727e+00 0.000000e+00
1.052632e-01 1.272727e+00 0.000000e+00
2.105263e-01 1.272727e+00 0.000000e+00
3.157895e-01 1.272727e+00 0.000000e+00
4.210526e-01 1.272727e+00 0.000000e+00
5.263158e-01 1.272727e+00 0.000000e+00
6.315789e-01 1.272727e+00 0.000000e+00
7.368421e-01 1.272727e+00 0.000000e+00
8.421053e-01 1.272727e+00 0.000000e+00
9.473684e-01 1.272727e+00 0.000000e+00
1.052632e+00 1.272727e+00 0.000000e+00
[...]
<PointData>
<DataArray Name="Velocity" type="Float64" format="ascii" NumberOfComponents="3">
0.000000e+00 0.000000e+00 0
0.000000e+00 0.000000e+00 0
0.000000e+00 0.000000e+00 0
0.000000e+00 0.000000e+00 0
0.000000e+00 0.000000e+00 0
0.000000e+00 0.000000e+00 0
0.000000e+00 0.000000e+00 0
0.000000e+00 0.000000e+00 0
0.000000e+00 0.000000e+00 0
0.000000e+00 0.000000e+00 0
0.000000e+00 0.000000e+00 0
1.424638e-16 0.000000e+00 0
0.000000e+00 0.000000e+00 0
0.000000e+00 0.000000e+00 0
0.000000e+00 0.000000e+00 0
-3.079104e-16 0.000000e+00 0
0.000000e+00 0.000000e+00 0
0.000000e+00 0.000000e+00 0
0.000000e+00 0.000000e+00 0
0.000000e+00 0.000000e+00 0
0.000000e+00 0.000000e+00 0
-2.572489e+01 2.610802e+01 0
-3.636962e+01 6.104348e+00 0
-4.623631e+01 -3.459920e-01 0
-5.341480e+01 1.085419e-01 0
-5.313662e+01 -3.372121e+00 0
-4.442628e+01 -8.337291e+00 0
-3.551143e+01 -1.277171e+01 0
-2.041780e+01 -1.228669e+01 0
-9.578597e+00 -1.079888e+01 0
2.012277e+00 -1.005503e+01 0
1.140975e+01 -9.574866e+00 0
2.310515e+01 -1.024894e+01 0
3.203318e+01 -6.747820e+00 0
3.625125e+01 -2.107622e+00 0
3.574678e+01 2.212943e+00 0
3.116820e+01 5.634207e+00 0
2.341270e+01 9.156140e+00 0
1.308552e+01 1.175888e+01 0
0.000000e+00 -2.610412e-14 0
0.000000e+00 0.000000e+00 0
-1.853036e+01 3.664514e+01 0
-3.406307e+01 2.066681e+01 0
-5.038263e+01 1.717432e+01 0
-6.017518e+01 6.952583e+00 0
-5.926245e+01 -9.056613e+00 0
-4.351741e+01 -1.775871e+01 0
-3.691189e+01 -2.419036e+01 0
-2.202795e+01 -2.612929e+01 0
-8.955620e+00 -2.260001e+01 0
2.415275e+00 -2.114735e+01 0
1.427453e+01 -2.125267e+01 0
2.672319e+01 -2.077966e+01 0
3.560552e+01 -1.324569e+01 0
3.945166e+01 -3.741732e+00 0
3.830923e+01 5.121560e+00 0
3.285671e+01 1.242751e+01 0
2.392039e+01 1.821967e+01 0
1.345495e+01 2.359007e+01 0
0.000000e+00 -5.469434e-14 0
0.000000e+00 0.000000e+00 0
-2.320486e+01 6.042914e+01 0
-4.664089e+01 3.819793e+01 0
-5.978022e+01 2.596394e+01 0
-6.331231e+01 9.055626e+00 0
-6.640048e+01 -2.015609e+01 0
-4.047733e+01 -3.085717e+01 0
-3.613618e+01 -3.442397e+01 0
-2.167702e+01 -4.045474e+01 0
-8.053901e+00 -3.542728e+01 0
4.118774e+00 -3.346117e+01 0
1.697911e+01 -3.406693e+01 0
3.014573e+01 -3.174153e+01 0
3.895340e+01 -1.957272e+01 0
4.238919e+01 -4.831808e+00 0
4.052176e+01 8.857859e+00 0
3.417401e+01 2.013205e+01 0
2.452009e+01 2.870488e+01 0
1.277903e+01 3.586049e+01 0
0.000000e+00 -8.452762e-14 0
0.000000e+00 0.000000e+00 0
-1.575355e+01 8.363937e+01 0
-2.998710e+01 5.751926e+01 0
-3.971215e+01 3.397203e+01 0
-4.015914e+01 1.362300e+01 0
-6.314789e+01 -3.206458e+01 0
-3.095155e+01 -4.825229e+01 0
-3.278528e+01 -4.313310e+01 0
-1.959344e+01 -5.442432e+01 0
-6.338093e+00 -4.859122e+01 0
5.992730e+00 -4.637000e+01 0
1.910425e+01 -4.747680e+01 0
3.265776e+01 -4.292043e+01 0
4.099842e+01 -2.558190e+01 0
4.395804e+01 -5.321966e+00 0
4.129745e+01 1.339898e+01 0
3.411014e+01 2.855040e+01 0
2.419345e+01 3.977673e+01 0
1.239868e+01 4.829592e+01 0
0.000000e+00 -1.143609e-13 0
0.000000e+00 0.000000e+00 0
-8.229940e+00 9.064342e+01 0
-6.951388e+00 6.233803e+01 0
-9.420207e+00 3.621304e+01 0
-9.175542e+00 3.266891e+01 0
-2.832291e+01 -2.917723e+01 0
-1.991791e+01 -6.119359e+01 0
-2.789001e+01 -4.586813e+01 0
-1.619498e+01 -6.710229e+01 0
-4.039981e+00 -6.120729e+01 0
7.562156e+00 -5.909625e+01 0
2.021109e+01 -6.093397e+01 0
3.350509e+01 -5.380157e+01 0
4.067863e+01 -3.095860e+01 0
4.334439e+01 -5.133102e+00 0
3.956783e+01 1.878036e+01 0
3.124158e+01 3.736563e+01 0
2.222698e+01 5.058082e+01 0
1.155575e+01 6.023722e+01 0
0.000000e+00 -1.392220e-13 0
0.000000e+00 0.000000e+00 0
-9.643070e+00 9.064342e+01 0
0.000000e+00 5.871854e+01 0
0.000000e+00 2.566783e+01 0
0.000000e+00 0.000000e+00 0
0.000000e+00 -5.181365e+01 0
-1.163957e+01 -5.713006e+01 0
-2.072641e+01 -4.687671e+01 0
-1.150132e+01 -7.845503e+01 0
-1.479713e+00 -7.252834e+01 0
8.494365e+00 -7.080479e+01 0
1.972829e+01 -7.361628e+01 0
3.160944e+01 -6.354304e+01 0
3.655240e+01 -3.549574e+01 0
3.989335e+01 -4.202742e+00 0
3.381984e+01 2.559348e+01 0
2.737715e+01 4.602262e+01 0
1.901363e+01 5.961170e+01 0
1.022100e+01 7.069128e+01 0
0.000000e+00 -1.591108e-13 0
0.000000e+00 0.000000e+00 0
-6.286121e+00 6.368935e+01 0
0.000000e+00 0.000000e+00 0
0.000000e+00 0.000000e+00 0
0.000000e+00 0.000000e+00 0
0.000000e+00 -5.181365e+01 0
-3.508569e+00 -5.250003e+01 0
-9.198891e+00 -4.595681e+01 0
-5.673444e+00 -8.649479e+01 0
9.413280e-01 -8.135446e+01 0
8.471990e+00 -8.046492e+01 0
1.720669e+01 -8.422416e+01 0
2.597578e+01 -7.075313e+01 0
2.664864e+01 -3.930527e+01 0
1.632907e+01 -2.379836e+00 0
1.485247e+01 3.136501e+01 0
1.293566e+01 5.225763e+01 0
1.635251e+01 6.786694e+01 0
8.825349e+00 7.939489e+01 0
0.000000e+00 -1.789997e-13 0
0.000000e+00 0.000000e+00 0
-3.599610e-01 6.392645e+01 0
0.000000e+00 0.000000e+00 0
0.000000e+00 0.000000e+00 0
0.000000e+00 0.000000e+00 0
0.000000e+00 0.000000e+00 0
0.000000e+00 0.000000e+00 0
-2.462751e+00 -4.510520e+01 0
-1.548727e+00 -8.866482e+01 0
2.374437e+00 -8.678093e+01 0
7.401234e+00 -8.719338e+01 0
1.300640e+01 -9.125267e+01 0
1.742883e+01 -7.305651e+01 0
1.256569e+01 -2.577595e+01 0
2.178137e-01 -5.000000e-05 0
1.102406e-15 0.000000e+00 0
5.226098e-01 3.331860e+01 0
1.286981e+01 7.389029e+01 0
7.255840e+00 8.716767e+01 0
0.000000e+00 -1.988885e-13 0
0.000000e+00 0.000000e+00 0
-3.049453e-01 6.405204e+01 0
0.000000e+00 0.000000e+00 0
0.000000e+00 0.000000e+00 0
0.000000e+00 0.000000e+00 0
0.000000e+00 0.000000e+00 0
0.000000e+00 -5.000000e-05 0
-1.324885e+00 -4.618109e+01 0
4.606013e-02 -9.135828e+01 0
2.684751e+00 -9.037222e+01 0
5.825700e+00 -9.117743e+01 0
8.661456e+00 -9.432772e+01 0
9.420697e+00 -7.030908e+01 0
2.093852e+00 -2.196386e+01 0
2.578723e+00 -5.000000e-05 0
-1.080848e+01 9.746322e+00 0
7.236032e+00 3.844115e+01 0
1.026341e+01 7.126401e+01 0
5.695520e+00 9.236219e+01 0
0.000000e+00 -2.088330e-13 0
0.000000e+00 0.000000e+00 0
-2.594767e-01 6.423371e+01 0
0.000000e+00 0.000000e+00 0
0.000000e+00 0.000000e+00 0
0.000000e+00 0.000000e+00 0
0.000000e+00 0.000000e+00 0
0.000000e+00 -5.000000e-05 0
-3.569087e-01 -4.653374e+01 0
5.452270e-01 -9.275199e+01 0
2.496515e+00 -9.260436e+01 0
4.584220e+00 -9.321536e+01 0
5.953771e+00 -9.487490e+01 0
5.157468e+00 -6.643915e+01 0
-1.664115e+01 -1.839354e+01 0
0.000000e+00 8.111793e+00 0
-1.080848e+01 2.578218e+01 0
4.080251e+00 4.798285e+01 0
6.542567e+00 7.548664e+01 0
3.662389e+00 9.750883e+01 0
0.000000e+00 -2.187774e-13 0
0.000000e+00 0.000000e+00 0
-2.022281e-01 6.431348e+01 0
-1.230570e-01 7.200588e-14 0
0.000000e+00 0.000000e+00 0
0.000000e+00 0.000000e+00 0
0.000000e+00 0.000000e+00 0
0.000000e+00 -5.000000e-05 0
-1.926346e+00 -4.715491e+01 0
1.609352e-01 -9.429817e+01 0
2.170268e+00 -9.444181e+01 0
4.071110e+00 -9.466088e+01 0
5.765175e+00 -9.490532e+01 0
7.495788e+00 -4.754298e+01 0
-1.075941e+01 -5.000000e-05 0
0.000000e+00 0.000000e+00 0
-1.053822e-14 -3.500000e-04 0
-4.995781e+00 2.623169e+01 0
7.988492e-01 7.170322e+01 0
1.358042e+00 9.895433e+01 0
0.000000e+00 -2.287218e-13 0
0.000000e+00 0.000000e+00 0
-4.203094e-01 9.882890e+01 0
-4.203094e-01 3.439393e+01 0
0.000000e+00 0.000000e+00 0
0.000000e+00 0.000000e+00 0
0.000000e+00 0.000000e+00 0
0.000000e+00 -5.000000e-05 0
-2.277622e+00 -4.865099e+01 0
-5.127721e-04 -9.689379e+01 0
1.955388e+00 -9.654416e+01 0
3.767856e+00 -9.683750e+01 0
5.706106e+00 -9.832553e+01 0
8.266570e+00 -4.978938e+01 0
8.266570e+00 -5.000000e-05 0
0.000000e+00 0.000000e+00 0
-1.056212e-14 -3.500000e-04 0
-5.007111e+00 2.462755e+01 0
-1.986358e+00 6.923865e+01 0
1.159287e-02 9.831373e+01 0
0.000000e+00 -2.287218e-13 0
0.000000e+00 0.000000e+00 0
-6.171121e-01 9.912840e+01 0
-6.171121e-01 3.439393e+01 0
0.000000e+00 0.000000e+00 0
0.000000e+00 0.000000e+00 0
0.000000e+00 0.000000e+00 0
0.000000e+00 -5.000000e-05 0
-8.479312e-01 -4.945697e+01 0
3.754279e-01 -9.857095e+01 0
1.886087e+00 -9.823873e+01 0
3.340578e+00 -9.844001e+01 0
4.644155e+00 -9.943811e+01 0
5.249093e+00 -5.012285e+01 0
5.251674e+00 -5.000000e-05 0
0.000000e+00 0.000000e+00 0
-6.970878e-15 -3.500000e-04 0
-3.304636e+00 2.343837e+01 0
-2.337785e+00 6.689681e+01 0
-4.361758e-01 9.695292e+01 0
0.000000e+00 -2.187774e-13 0
0.000000e+00 0.000000e+00 0
-8.990427e-01 9.945068e+01 0
2.100894e+01 3.439393e+01 0
0.000000e+00 0.000000e+00 0
0.000000e+00 0.000000e+00 0
0.000000e+00 0.000000e+00 0
0.000000e+00 -5.000000e-05 0
-3.215183e-01 -4.991859e+01 0
6.329965e-01 -9.968350e+01 0
1.873995e+00 -9.953177e+01 0
3.068380e+00 -9.961646e+01 0
4.033816e+00 -1.002485e+02 0
4.507850e+00 -5.040150e+01 0
4.510430e+00 -2.650000e-03 0
0.000000e+00 0.000000e+00 0
-1.738688e-15 -3.500000e-04 0
-8.242478e-01 2.385282e+01 0
-1.543908e+00 6.654790e+01 0
-3.888642e-01 9.595824e+01 0
0.000000e+00 -2.187774e-13 0
0.000000e+00 0.000000e+00 0
-1.097614e+00 7.796030e+01 0
2.081036e+01 1.231999e+01 0
0.000000e+00 0.000000e+00 0
0.000000e+00 0.000000e+00 0
0.000000e+00 0.000000e+00 0
0.000000e+00 -5.000000e-05 0
-4.027564e-01 -5.046918e+01 0
6.940991e-01 -1.008336e+02 0
1.909336e+00 -1.006926e+02 0
3.028732e+00 -1.006162e+02 0
3.899189e+00 -1.008885e+02 0
4.299951e+00 -5.060307e+01 0
4.299951e+00 -2.650000e-03 0
0.000000e+00 0.000000e+00 0
-3.461834e-16 -3.500000e-04 0
-1.641128e-01 2.434110e+01 0
-1.465565e+00 6.663575e+01 0
-3.561332e-01 9.539732e+01 0
0.000000e+00 -2.187774e-13 0
0.000000e+00 0.000000e+00 0
-1.034365e+00 7.848266e+01 0
-1.034365e+00 1.231999e+01 0
0.000000e+00 0.000000e+00 0
0.000000e+00 0.000000e+00 0
0.000000e+00 0.000000e+00 0
0.000000e+00 -5.000000e-05 0
-5.057985e-01 -5.108037e+01 0
7.205290e-01 -1.020697e+02 0
2.042230e+00 -1.018841e+02 0
3.242243e+00 -1.016214e+02 0
4.188094e+00 -1.015293e+02 0
4.688788e+00 -5.080530e+01 0
4.688788e+00 -2.650000e-03 0
0.000000e+00 0.000000e+00 0
0.000000e+00 0.000000e+00 0
0.000000e+00 2.554332e+01 0
-1.838390e+00 6.722591e+01 0
-4.145369e-01 9.458726e+01 0
0.000000e+00 -2.187774e-13 0
0.000000e+00 0.000000e+00 0
-1.040548e+00 7.900251e+01 0
-1.040548e+00 1.231999e+01 0
0.000000e+00 0.000000e+00 0
0.000000e+00 0.000000e+00 0
0.000000e+00 0.000000e+00 0
0.000000e+00 -5.000000e-05 0
-3.674773e-01 -5.178345e+01 0
7.910799e-01 -1.034795e+02 0
2.298742e+00 -1.032334e+02 0
3.714276e+00 -1.027783e+02 0
4.868214e+00 -1.023460e+02 0
5.558236e+00 -5.110756e+01 0
5.558236e+00 -2.650000e-03 0
0.000000e+00 0.000000e+00 0
-1.206381e-15 0.000000e+00 0
-5.719010e-01 2.476446e+01 0
-1.840738e+00 6.573365e+01 0
-3.858296e-01 9.365453e+01 0
0.000000e+00 -2.187774e-13 0
0.000000e+00 0.000000e+00 0
-1.030376e+00 7.953109e+01 0
-1.030376e+00 1.231999e+01 0
0.000000e+00 0.000000e+00 0
0.000000e+00 0.000000e+00 0
0.000000e+00 0.000000e+00 0
0.000000e+00 -5.000000e-05 0
-3.356094e-01 -5.234761e+01 0
7.683607e-01 -1.048560e+02 0
2.647909e+00 -1.048294e+02 0
4.452356e+00 -1.042103e+02 0
5.967971e+00 -1.033873e+02 0
6.895645e+00 -5.150055e+01 0
6.895645e+00 -2.650000e-03 0
0.000000e+00 0.000000e+00 0
-1.680311e-15 2.616833e+01 0
-7.965735e-01 5.137581e+01 0
-1.487570e+00 6.542797e+01 0
-2.359022e-01 9.273642e+01 0
0.000000e+00 -2.187774e-13 0
0.000000e+00 0.000000e+00 0
-9.130406e-01 8.004069e+01 0
-9.130406e-01 1.231999e+01 0
0.000000e+00 0.000000e+00 0
0.000000e+00 0.000000e+00 0
0.000000e+00 0.000000e+00 0
0.000000e+00 -5.000000e-05 0
-2.960253e-01 -5.301843e+01 0
5.564283e-01 -1.066083e+02 0
3.068520e+00 -1.069453e+02 0
5.484591e+00 -1.061235e+02 0
7.560311e+00 -1.048078e+02 0
8.694830e+00 -5.204226e+01 0
8.694830e+00 -2.650000e-03 0
0.000000e+00 0.000000e+00 0
-4.739297e-16 2.616833e+01 0
-2.246726e-01 5.183968e+01 0
-1.388436e+00 6.537939e+01 0
-2.449215e-01 9.215569e+01 0
0.000000e+00 -2.287218e-13 0
0.000000e+00 0.000000e+00 0
-6.066648e-01 8.045105e+01 0
-6.066648e-01 1.231999e+01 0
0.000000e+00 0.000000e+00 0
0.000000e+00 0.000000e+00 0
0.000000e+00 0.000000e+00 0
0.000000e+00 -5.000000e-05 0
-9.805044e-02 -5.336440e+01 0
1.278599e-01 -1.084040e+02 0
3.568977e+00 -1.097949e+02 0
6.865373e+00 -1.087361e+02 0
9.731347e+00 -1.066218e+02 0
1.031692e+01 -5.264367e+01 0
6.069489e+01 -2.650000e-03 0
0.000000e+00 0.000000e+00 0
0.000000e+00 0.000000e+00 0
0.000000e+00 2.554332e+01 0
-2.200227e+00 6.471020e+01 0
-7.771702e-01 9.143603e+01 0
0.000000e+00 -2.187774e-13 0
0.000000e+00 0.000000e+00 0
-1.278291e-01 8.065195e+01 0
-1.278291e-01 1.231999e+01 0
0.000000e+00 0.000000e+00 0
0.000000e+00 0.000000e+00 0
0.000000e+00 0.000000e+00 0
0.000000e+00 -5.000000e-05 0
-8.862432e-02 -5.345010e+01 0
-4.526898e-01 -1.105072e+02 0
4.167405e+00 -1.137338e+02 0
8.691555e+00 -1.123326e+02 0
1.307697e+01 -1.082855e+02 0
1.437965e+01 -1.033919e+02 0
6.475761e+01 -5.076226e+01 0
0.000000e+00 0.000000e+00 0
0.000000e+00 0.000000e+00 0
0.000000e+00 2.554332e+01 0
-3.012534e+00 6.402487e+01 0
-2.269498e+00 9.014614e+01 0
0.000000e+00 -2.187774e-13 0
0.000000e+00 0.000000e+00 0
3.795765e-01 8.057985e+01 0
3.795765e-01 1.231999e+01 0
0.000000e+00 0.000000e+00 0
0.000000e+00 0.000000e+00 0
0.000000e+00 0.000000e+00 0
0.000000e+00 -5.000000e-05 0
-8.152234e-02 -5.325649e+01 0
-8.662467e-01 -1.129511e+02 0
4.757535e+00 -1.190084e+02 0
1.067250e+01 -1.177132e+02 0
1.724781e+01 -1.123530e+02 0
1.926793e+01 -1.047158e+02 0
1.470117e+02 -5.076226e+01 0
0.000000e+00 0.000000e+00 0
0.000000e+00 0.000000e+00 0
0.000000e+00 2.554332e+01 0
-1.005911e+01 6.418017e+01 0
-5.604326e+00 8.861931e+01 0
0.000000e+00 -2.088330e-13 0
0.000000e+00 0.000000e+00 0
7.873645e-01 8.026950e+01 0
7.873645e-01 1.231999e+01 0
0.000000e+00 0.000000e+00 0
0.000000e+00 0.000000e+00 0
0.000000e+00 0.000000e+00 0
0.000000e+00 -5.000000e-05 0
-1.548422e+00 -5.299304e+01 0
-1.233290e+00 -1.157165e+02 0
4.874633e+00 -1.253600e+02 0
1.197110e+01 -1.249175e+02 0
2.122890e+01 -1.169460e+02 0
2.933112e+01 -2.341389e+02 0
1.570749e+02 -1.794738e+02 0
0.000000e+00 0.000000e+00 0
0.000000e+00 0.000000e+00 0
0.000000e+00 2.554332e+01 0
-9.959896e+00 5.989667e+01 0
-7.636757e+00 8.037116e+01 0
0.000000e+00 -1.889441e-13 0
0.000000e+00 0.000000e+00 0
1.054171e+00 7.978652e+01 0
1.054171e+00 1.231999e+01 0
0.000000e+00 0.000000e+00 0
0.000000e+00 0.000000e+00 0
0.000000e+00 0.000000e+00 0
0.000000e+00 -5.000000e-05 0
-3.377808e+00 -5.396132e+01 0
-1.777877e+00 -1.198102e+02 0
3.743429e+00 -1.323129e+02 0
1.085134e+01 -1.341914e+02 0
2.084766e+01 -1.298446e+02 0
3.414519e+01 -2.415910e+02 0
3.414519e+01 -1.794738e+02 0
0.000000e+00 0.000000e+00 0
0.000000e+00 0.000000e+00 0
0.000000e+00 2.554332e+01 0
-2.971523e+00 6.213367e+01 0
-7.739015e+00 7.887819e+01 0
0.000000e+00 -1.889441e-13 0
0.000000e+00 0.000000e+00 0
1.169686e+00 7.920734e+01 0
1.169686e+00 1.231999e+01 0
0.000000e+00 0.000000e+00 0
0.000000e+00 0.000000e+00 0
0.000000e+00 0.000000e+00 0
0.000000e+00 -5.000000e-05 0
-2.894152e+00 -5.503039e+01 0
-2.774427e+00 -1.233170e+02 0
6.805731e-01 -1.380849e+02 0
5.804720e+00 -1.421513e+02 0
1.207879e+01 -1.404163e+02 0
2.211050e+01 -2.475371e+02 0
1.517914e+01 -1.794738e+02 0
0.000000e+00 0.000000e+00 0
0.000000e+00 0.000000e+00 0
0.000000e+00 2.554332e+01 0
-4.499583e+00 6.483308e+01 0
-5.873530e+00 7.750993e+01 0
0.000000e+00 -1.591108e-13 0
0.000000e+00 0.000000e+00 0
1.148389e+00 7.860797e+01 0
1.148389e+00 1.231999e+01 0
0.000000e+00 0.000000e+00 0
0.000000e+00 0.000000e+00 0
0.000000e+00 0.000000e+00 0
0.000000e+00 -5.000000e-05 0
-1.965638e+00 -5.459878e+01 0
-4.742121e+00 -1.239288e+02 0
-4.607759e+00 -1.409570e+02 0
-3.626646e+00 -1.456759e+02 0
-7.999842e+00 -1.462739e+02 0
-2.996763e+01 -7.222487e+01 0
-9.801998e+01 -9.544531e-13 0
6.410201e+02 -5.941857e+01 0
6.410201e+02 -5.941857e+01 0
0.000000e+00 2.554332e+01 0
-3.053225e+00 6.372529e+01 0
6.865049e-02 7.455179e+01 0
0.000000e+00 -1.541386e-13 0
0.000000e+00 0.000000e+00 0
1.039304e+00 7.805025e+01 0
1.039304e+00 1.231999e+01 0
0.000000e+00 0.000000e+00 0
0.000000e+00 0.000000e+00 0
0.000000e+00 0.000000e+00 0
0.000000e+00 -5.000000e-05 0
-2.029018e+00 -5.290877e+01 0
-7.836327e+00 -1.213307e+02 0
-1.202827e+01 -1.392088e+02 0
-1.598412e+01 -1.387335e+02 0
-2.734106e+01 -1.145916e+02 0
-5.751269e+01 -1.606196e+02 0
-1.186337e+02 -2.279494e+02 0
6.410201e+02 -1.733934e+02 0
6.410201e+02 -5.941857e+01 0
0.000000e+00 0.000000e+00 0
0.000000e+00 3.545156e+01 0
1.481537e+01 7.368743e+01 0
0.000000e+00 -1.640830e-13 0
0.000000e+00 0.000000e+00 0
9.786831e-01 7.756080e+01 0
9.786831e-01 1.231999e+01 0
0.000000e+00 0.000000e+00 0
0.000000e+00 0.000000e+00 0
0.000000e+00 0.000000e+00 0
0.000000e+00 -5.000000e-05 0
-3.260649e+00 -4.960326e+01 0
-1.170238e+01 -1.147096e+02 0
-2.264988e+01 -1.327475e+02 0
-3.656342e+01 -1.302471e+02 0
-5.653913e+01 -1.051465e+02 0
-7.839321e+01 -1.565151e+02 0
-2.061370e+01 -1.139746e+02 0
0.000000e+00 0.000000e+00 0
-2.594485e+01 0.000000e+00 0
0.000000e+00 0.000000e+00 0
-2.594485e+01 5.430272e+00 0
1.300997e+01 5.654424e+01 0
0.000000e+00 -2.187774e-13 0
0.000000e+00 0.000000e+00 0
1.476455e+00 7.706415e+01 0
1.476455e+00 1.231999e+01 0
0.000000e+00 0.000000e+00 0
0.000000e+00 0.000000e+00 0
0.000000e+00 0.000000e+00 0
0.000000e+00 -5.000000e-05 0
-7.126357e+00 -4.540506e+01 0
-1.420514e+01 -1.027966e+02 0
-3.469365e+01 -1.141594e+02 0
-7.197648e+01 -1.045875e+02 0
-1.266345e+02 -7.244496e+01 0
-1.746660e+02 -2.462530e+01 0
-1.370389e+02 0.000000e+00 0
-1.422583e+02 -5.000000e-05 0
-1.682031e+02 -5.000000e-05 0
-1.420946e+02 3.355615e+01 0
6.534595e-02 1.317982e+01 0
4.879319e+00 3.083807e+01 0
0.000000e+00 -2.187774e-13 0
0.000000e+00 0.000000e+00 0
3.276396e+00 7.607316e+01 0
3.276396e+00 1.231999e+01 0
0.000000e+00 0.000000e+00 0
0.000000e+00 0.000000e+00 0
0.000000e+00 0.000000e+00 0
0.000000e+00 -5.000000e-05 0
-9.742474e+00 -4.345410e+01 0
-1.120425e+01 -8.791669e+01 0
-2.390474e+01 -7.453849e+01 0
-4.374172e+01 -3.760978e+01 0
-6.664567e+01 -1.886467e+00 0
-7.713229e+01 2.322594e+01 0
-9.929091e+01 3.755916e+01 0
-1.045103e+02 1.998064e+01 0
-1.422583e+02 -1.661377e-01 0
-1.420946e+02 -4.158131e+01 0
8.442258e+01 -4.040016e+01 0
2.760606e+01 5.704531e+01 0
0.000000e+00 -2.287218e-13 0
0.000000e+00 0.000000e+00 0
3.148868e+01 7.376294e+01 0
2.862018e+01 1.231999e+01 0
2.632733e+01 0.000000e+00 0
0.000000e+00 0.000000e+00 0
0.000000e+00 0.000000e+00 0
0.000000e+00 -5.000000e-05 0
-1.048727e+01 -4.475662e+01 0
-4.784876e+00 -8.935145e+01 0
-1.654107e+00 -8.137549e+01 0
1.342576e+01 -6.152280e+01 0
4.701332e+01 -3.900884e+01 0
9.195344e+01 5.048293e+00 0
9.319198e+01 3.929562e+01 0
9.319198e+01 1.998069e+01 0
0.000000e+00 0.000000e+00 0
0.000000e+00 -5.797320e+01 0
5.841239e+01 -7.940066e+01 0
-4.927706e+00 5.760214e+01 0
0.000000e+00 -3.381105e-13 0
0.000000e+00 5.648660e-02 0
2.919583e+01 4.708598e+01 0
5.594369e+01 2.696190e+01 0
6.775607e+01 1.190187e+01 0
0.000000e+00 0.000000e+00 0
0.000000e+00 0.000000e+00 0
0.000000e+00 -4.481886e+01 0
-5.690781e+00 -9.465015e+01 0
-1.506044e+00 -9.744842e+01 0
3.858433e+00 -9.288708e+01 0
1.697843e+01 -8.664590e+01 0
4.204633e+01 -8.100905e+01 0
7.751101e+01 -2.358752e+01 0
9.668072e+01 3.602627e+01 0
5.544401e+01 1.998069e+01 0
0.000000e+00 0.000000e+00 0
0.000000e+00 -5.797320e+01 0
-5.841219e+01 -5.063970e+01 0
-7.843539e+01 5.839872e+01 0
0.000000e+00 -2.187774e-13 0
0.000000e+00 0.000000e+00 0
0.000000e+00 0.000000e+00 0
2.486107e-13 0.000000e+00 0
3.480549e-13 0.000000e+00 0
0.000000e+00 0.000000e+00 0
0.000000e+00 0.000000e+00 0
0.000000e+00 0.000000e+00 0
0.000000e+00 -5.000000e+01 0
-4.972213e-15 -1.000000e+02 0
1.491664e-14 -1.000000e+02 0
5.469434e-14 -1.000000e+02 0
1.231203e-13 -1.000000e+02 0
2.138052e-13 -5.000000e+01 0
3.430827e-13 0.000000e+00 0
0.000000e+00 0.000000e+00 0
0.000000e+00 0.000000e+00 0
0.000000e+00 0.000000e+00 0
-4.872769e-13 0.000000e+00 0
-4.176659e-13 0.000000e+00 0
0.000000e+00 0.000000e+00 0
</DataArray>
<DataArray Name="Type and Neighbourhood" type="Float64" format="ascii" NumberOfComponents="3">
0.000000e+00 0.000000e+00 0
0.000000e+00 0.000000e+00 0
0.000000e+00 0.000000e+00 0
0.000000e+00 0.000000e+00 0
0.000000e+00 0.000000e+00 0
0.000000e+00 0.000000e+00 0
0.000000e+00 0.000000e+00 0
0.000000e+00 0.000000e+00 0