<?xml version="1.0"?>
<VTKFile type="StructuredGrid">
<StructuredGrid WholeExtent="0 19 0 33 0 0 ">
<Piece Extent="0 19 0 33 0 0 ">
<Points>
<DataArray type="Float64" format="ascii" NumberOfComponents="3">
0.000000e+00 0.000000e+00 0.000000e+00
1.052632e-01 0.000000e+00 0.000000e+00
2.105263e-01 0.000000e+00 0.000000e+00
3.157895e-01 0.000000e+00 0.000000e+00
4.210526e-01 0.000000e+00 0.000000e+00
5.263158e-01 0.000000e+00 0.000000e+00
6.315789e-01 0.000000e+00 0.000000e+00
7.368421e-01 0.000000e+00 0.000000e+00
8.421053e-01 0.000000e+00 0.000000e+00
9.473684e-01 0.000000e+00 0.000000e+00
1.052632e+00 0.000000e+00 0.000000e+00
1.157895e+00 0.000000e+00 0.000000e+00
1.263158e+00 0.000000e+00 0.000000e+00
1.368421e+00 0.000000e+00 0.000000e+00
1.473684e+00 0.000000e+00 0.000000e+00
1.578947e+00 0.000000e+00 0.000000e+00
1.684211e+00 0.000000e+00 0.000000e+00
1.789474e+00 0.000000e+00 0.000000e+00
1.894737e+00 0.000000e+00 0.000000e+00
2.000000e+00 0.000000e+00 0.000000e+00
0.000000e+00 1.060606e-01 0.000000e+00
1.052632e-01 1.060606e-01 0.000000e+00
2.105263e-01 1.060606e-01 0.000000e+00
3.157895e-01 1.060606e-01 0.000000e+00
4.210526e-01 1.060606e-01 0.000000e+00
5.263158e-01 1.060606e-01 0.000000e+00
6.315789e-01 1.060606e-01 0.000000e+00
7.368421e-01 1.060606e-01 0.000000e+00
8.421053e-01 1.060606e-01 0.000000e+00
9.473684e-01 1.060606e-01 0.000000e+00
1.052632e+00 1.060606e-01 0.000000e+00
1.157895e+00 1.060606e-01 0.000000e+00
1.263158e+00 1.060606e-01 0.000000e+00
1.368421e+00 1.060606e-01 0.000000e+00
1.473684e+00 1.060606e-01 0.000000e+00
1.578947e+00 1.060606e-01 0.000000e+00
1.684211e+00 1.060606e-01 0.000000e+00
1.789474e+00 1.060606e-01 0.000000e+00
1.894737e+00 1.060606e-01 0.000000e+00
2.000000e+00 1.060606e-01 0.000000e+00
0.000000e+00 2.121212e-01 0.000000e+00
1.052632e-01 2.121212e-01 0.000000e+00
2.105263e-01 2.121212e-01 0.000000e+00
3.157895e-01 2.121212e-01 0.000000e+00
4.210526e-01 2.121212e-01 0.000000e+00
5.263158e-01 2.121212e-01 0.000000e+00
6.315789e-01 2.121212e-01 0.000000e+00
7.368421e-01 2.121212e-01 0.000000e+00
8.421053e-01 2.121212e-01 0.000000e+00
9.473684e-01 2.121212e-01 0.000000e+00
1.052632e+00 2.121212e-01 0.000000e+00
1.157895e+00 2.121212e-01 0.000000e+00
1.263158e+00 2.121212e-01 0.000000e+00
1.368421e+00 2.121212e-01 0.000000e+00
1.473684e+00 2.121212e-01 0.000000e+00
1.578947e+00 2.121212e-01 0.000000e+00
1.684211e+00 2.121212e-01 0.000000e+00
1.789474e+00 2.121212e-01 0.000000e+00
1.894737e+00 2.121212e-01 0.000000e+00
2.000000e+00 2.121212e-01 0.000000e+00
0.000000e+00 3.181818e-01 0.000000e+00
1.052632e-01 3.181818e-01 0.000000e+00
2.105263e-01 3.181818e-01 0.000000e+00
3.157895e-01 3.181818e-01 0.000000e+00
4.210526e-01 3.181818e-01 0.000000e+00
5.263158e-01 3.181818e-01 0.000000e+00
6.315789e-01 3.181818e-01 0.000000e+00
7.368421e-01 3.181818e-01 0.000000e+00
8.421053e-01 3.181818e-01 0.000000e+00
9.473684e-01 3.181818e-01 0.000000e+00
1.052632e+00 3.181818e-01 0.000000e+00
1.157895e+00 3.181818e-01 0.000000e+00
1.263158e+00 3.181818e-01 0.000000e+00
1.368421e+00 3.181818e-01 0.000000e+00
1.473684e+00 3.181818e-01 0.000000e+00
1.578947e+00 3.181818e-01 0.000000e+00
1.684211e+00 3.181818e-01 0.000000e+00
1.789474e+00 3.181818e-01 0.000000e+00
1.894737e+00 3.181818e-01 0.000000e+00
2.000000e+00 3.181818e-01 0.000000e+00
0.000000e+00 4.242424e-01 0.000000e+00
1.052632e-01 4.242424e-01 0.000000e+00
2.105263e-01 4.242424e-01 0.000000e+00
3.157895e-01 4.242424e-01 0.000000e+00
4.210526e-01 4.242424e-01 0.000000e+00
5.263158e-01 4.242424e-01 0.000000e+00
6.315789e-01 4.242424e-01 0.000000e+00
7.368421e-01 4.242424e-01 0.000000e+00
8.421053e-01 4.242424e-01 0.000000e+00
9.473684e-01 4.242424e-01 0.000000e+00
1.052632e+00 4.242424e-01 0.000000e+00
1.157895e+00 4.242424e-01 0.000000e+00
1.263158e+00 4.242424e-01 0.000000e+00
1.368421e+00 4.242424e-01 0.000000e+00
1.473684e+00 4.242424e-01 0.000000e+00
1.578947e+00 4.242424e-01 0.000000e+00
1.684211e+00 4.242424e-01 0.000000e+00
1.789474e+00 4.242424e-01 0.000000e+00
1.894737e+00 4.242424e-01 0.000000e+00
2.000000e+00 4.242424e-01 0.000000e+00
0.000000e+00 5.303030e-01 0.000000e+00
1.052632e-01 5.303030e-01 0.000000e+00
2.105263e-01 5.303030e-01 0.000000e+00
3.157895e-01 5.303030e-01 0.000000e+00
4.210526e-01 5.303030e-01 0.000000e+00
5.263158e-01 5.303030e-01 0.000000e+00
6.315789e-01 5.303030e-01 0.000000e+00
7.368421e-01 5.303030e-01 0.000000e+00
8.421053e-01 5.303030e-01 0.000000e+00
9.473684e-01 5.303030e-01 0.000000e+00
1.052632e+00 5.303030e-01 0.000000e+00
1.157895e+00 5.303030e-01 0.000000e+00
1.263158e+00 5.303030e-01 0.000000e+00
1.368421e+00 5.303030e-01 0.000000e+00
1.473684e+00 5.303030e-01 0.000000e+00
1.578947e+00 5.303030e-01 0.000000e+00
1.684211e+00 5.303030e-01 0.000000e+00
1.789474e+00 5.303030e-01 0.000000e+00
1.894737e+00 5.303030e-01 0.000000e+00
2.000000e+00 5.303030e-01 0.000000e+00
0.000000e+00 6.363636e-01 0.000000e+00
1.052632e-01 6.363636e-01 0.000000e+00
2.105263e-01 6.363636e-01 0.000000e+00
3.157895e-01 6.363636e-01 0.000000e+00
4.210526e-01 6.363636e-01 0.000000e+00
5.263158e-01 6.363636e-01 0.000000e+00
6.315789e-01 6.363636e-01 0.000000e+00
7.368421e-01 6.363636e-01 0.000000e+00
8.421053e-01 6.363636e-01 0.000000e+00
9.473684e-01 6.363636e-01 0.000000e+00
1.052632e+00 6.363636e-01 0.000000e+00
1.157895e+00 6.363636e-01 0.000000e+00
1.263158e+00 6.363636e-01 0.000000e+00
1.368421e+00 6.363636e-01 0.000000e+00
1.473684e+00 6.363636e-01 0.000000e+00
1.578947e+00 6.363636e-01 0.000000e+00
1.684211e+00 6.363636e-01 0.000000e+00
1.789474e+00 6.363636e-01 0.000000e+00
1.894737e+00 6.363636e-01 0.000000e+00
2.000000e+00 6.363636e-01 0.000000e+00
0.000000e+00 7.424242e-01 0.000000e+00
1.052632e-01 7.424242e-01 0.000000e+00
2.105263e-01 7.424242e-01 0.000000e+00
3.157895e-01 7.424242e-01 0.000000e+00
4.210526e-01 7.424242e-01 0.000000e+00
5.263158e-01 7.424242e-01 0.000000e+00
6.315789e-01 7.424242e-01 0.000000e+00
7.368421e-01 7.424242e-01 0.000000e+00
8.421053e-01 7.424242e-01 0.000000e+00
9.473684e-01 7.424242e-01 0.000000e+00
1.052632e+00 7.424242e-01 0.000000e+00
1.157895e+00 7.424242e-01 0.000000e+00
1.263158e+00 7.424242e-01 0.000000e+00
1.368421e+00 7.424242e-01 0.000000e+00
1.473684e+00 7.424242e-01 0.000000e+00
1.578947e+00 7.424242e-01 0.000000e+00
1.684211e+00 7.424242e-01 0.000000e+00
1.789474e+00 7.424242e-01 0.000000e+00
1.894737e+00 7.424242e-01 0.000000e+00
2.000000e+00 7.424242e-01 0.000000e+00
0.000000e+00 8.484848e-01 0.000000e+00
1.052632e-01 8.484848e-01 0.000000e+00
2.105263e-01 8.484848e-01 0.000000e+00
3.157895e-01 8.484848e-01 0.000000e+00
4.210526e-01 8.484848e-01 0.000000e+00
5.263158e-01 8.484848e-01 0.000000e+00
6.315789e-01 8.484848e-01 0.000000e+00
7.368421e-01 8.484848e-01 0.000000e+00
8.421053e-01 8.484848e-01 0.000000e+00
9.473684e-01 8.484848e-01 0.000000e+00
1.052632e+00 8.484848e-01 0.000000e+00
1.157895e+00 8.484848e-01 0.000000e+00
1.263158e+00 8.484848e-01 0.000000e+00
1.368421e+00 8.484848e-01 0.000000e+00
1.473684e+00 8.484848e-01 0.000000e+00
1.578947e+00 8.484848e-01 0.000000e+00
1.684211e+00 8.484848e-01 0.000000e+00
1.789474e+00 8.484848e-01 0.000000e+00
1.894737e+00 8.484848e-01 0.000000e+00
2.000000e+00 8.484848e-01 0.000000e+00
0.000000e+00 9.545455e-01 0.000000e+00
1.052632e-01 9.545455e-01 0.000000e+00
2.105263e-01 9.545455e-01 0.000000e+00
3.157895e-01 9.545455e-01 0.000000e+00
4.210526e-01 9.545455e-01 0.000000e+00
5.263158e-01 9.545455e-01 0.000000e+00
6.315789e-01 9.545455e-01 0.000000e+00
7.368421e-01 9.545455e-01 0.000000e+00
8.421053e-01 9.545455e-01 0.000000e+00
9.473684e-01 9.545455e-01 0.000000e+00
1.052632e+00 9.545455e-01 0.000000e+00
1.157895e+00 9.545455e-01 0.000000e+00
1.263158e+00 9.545455e-01 0.000000e+00
1.368421e+00 9.545455e-01 0.000000e+00
1.473684e+00 9.545455e-01 0.000000e+00
1.578947e+00 9.545455e-01 0.000000e+00
1.684211e+00 9.545455e-01 0.000000e+00
1.789474e+00 9.545455e-01 0.000000e+00
1.894737e+00 9.545455e-01 0.000000e+00
2.000000e+00 9.545455e-01 0.000000e+00
0.000000e+00 1.060606e+00 0.000000e+00
1.052632e-01 1.060606e+00 0.000000e+00
2.105263e-01 1.060606e+00 0.000000e+00
3.157895e-01 1.060606e+00 0.000000e+00
4.210526e-01 1.060606e+00 0.000000e+00
5.263158e-01 1.060606e+00 0.000000e+00
6.315789e-01 1.060606e+00 0.000000e+00
7.368421e-01 1.060606e+00 0.000000e+00
8.421053e-01 1.060606e+00 0.000000e+00
9.473684e-01 1.060606e+00 0.000000e+00
1.052632e+00 1.060606e+00 0.000000e+00
1.157895e+00 1.060606e+00 0.000000e+00
1.263158e+00 1.060606e+00 0.000000e+00
1.368421e+00 1.060606e+00 0.000000e+00
1.473684e+00 1.060606e+00 0.000000e+00
1.578947e+00 1.060606e+00 0.000000e+00
1.684211e+00 1.060606e+00 0.000000e+00
1.789474e+00 1.060606e+00 0.000000e+00
1.894737e+00 1.060606e+00 0.000000e+00
2.000000e+00 1.060606e+00 0.000000e+00
0.000000e+00 1.166667e+00 0.000000e+00
1.052632e-01 1.166667e+00 0.000000e+00
2.105263e-01 1.166667e+00 0.000000e+00
3.157895e-01 1.166667e+00 0.000000e+00
4.210526e-01 1.166667e+00 0.000000e+00
5.263158e-01 1.166667e+00 0.000000e+00
6.315789e-01 1.166667e+00 0.000000e+00
7.368421e-01 1.166667e+00 0.000000e+00
8.421053e-01 1.166667e+00 0.000000e+00
9.473684e-01 1.166667e+00 0.000000e+00
1.052632e+00 1.166667e+00 0.000000e+00
1.157895e+00 1.166667e+00 0.000000e+00
1.263158e+00 1.166667e+00 0.000000e+00
1.368421e+00 1.166667e+00 0.000000e+00
1.473684e+00 1.166667e+00 0.000000e+00
1.578947e+00 1.166667e+00 0.000000e+00
1.684211e+00 1.166667e+00 0.000000e+00
1.789474e+00 1.166667e+00 0.000000e+00
1.894737e+00 1.166667e+00 0.000000e+00
2.000000e+00 1.166667e+00 0.000000e+00
0.000000e+00 1.272727e+00 0.000000e+00
1.052632e-01 1.272727e+00 0.000000e+00
2.105263e-01 1.272727e+00 0.000000e+00
3.157895e-01 1.272727e+00 0.000000e+00
4.210526e-01 1.272727e+00 0.000000e+00
5.263158e-01 1.272727e+00 0.000000e+00
6.315789e-01 1.272727e+00 0.000000e+00
7.368421e-01 1.272727e+00 0.000000e+00
8.421053e-01 1.272727e+00 0.000000e+00
9.473684e-01 1.272727e+00 0.000000e+00
1.052632e+00 1.272727e+00 0.000000e+00
[...]
<PointData>
<DataArray Name="Velocity" type="Float64" format="ascii" NumberOfComponents="3">
0.000000e+00 0.000000e+00 0
0.000000e+00 0.000000e+00 0
0.000000e+00 0.000000e+00 0
0.000000e+00 0.000000e+00 0
0.000000e+00 0.000000e+00 0
0.000000e+00 0.000000e+00 0
0.000000e+00 0.000000e+00 0
0.000000e+00 0.000000e+00 0
0.000000e+00 0.000000e+00 0
0.000000e+00 0.000000e+00 0
0.000000e+00 0.000000e+00 0
-2.539300e-16 0.000000e+00 0
0.000000e+00 0.000000e+00 0
0.000000e+00 0.000000e+00 0
0.000000e+00 0.000000e+00 0
-4.216149e-16 0.000000e+00 0
0.000000e+00 0.000000e+00 0
0.000000e+00 0.000000e+00 0
0.000000e+00 0.000000e+00 0
0.000000e+00 0.000000e+00 0
0.000000e+00 0.000000e+00 0
-4.413699e+01 5.342429e+01 0
-6.513839e+01 2.894617e+01 0
-5.463787e+01 -1.274309e+01 0
-5.381738e+01 -3.902454e+01 0
-4.688752e+01 -2.028551e+01 0
-4.093116e+01 -7.266447e+00 0
-3.474492e+01 -1.152829e+01 0
-1.941759e+01 -1.216600e+01 0
-8.982908e+00 -1.018167e+01 0
2.354605e+00 -1.001111e+01 0
1.173121e+01 -9.548831e+00 0
2.315099e+01 -9.903599e+00 0
3.189869e+01 -6.593268e+00 0
3.612717e+01 -2.112994e+00 0
3.572061e+01 2.220238e+00 0
3.117144e+01 5.982052e+00 0
2.318169e+01 9.038303e+00 0
1.253765e+01 1.138763e+01 0
0.000000e+00 -2.610412e-14 0
0.000000e+00 0.000000e+00 0
-2.110404e+01 6.563186e+01 0
-3.336320e+01 1.058043e+01 0
-3.040471e+01 -1.140677e+01 0
-5.137931e+01 -7.809065e+00 0
-5.628244e+01 -1.298384e+01 0
-4.197881e+01 -1.223459e+01 0
-3.658098e+01 -2.167655e+01 0
-2.176324e+01 -2.595718e+01 0
-8.605764e+00 -2.193714e+01 0
2.705571e+00 -2.087104e+01 0
1.416259e+01 -2.095393e+01 0
2.654615e+01 -2.032027e+01 0
3.539206e+01 -1.307449e+01 0
3.935472e+01 -3.850870e+00 0
3.842861e+01 4.993282e+00 0
3.319355e+01 1.263391e+01 0
2.446655e+01 1.877495e+01 0
1.311793e+01 2.335731e+01 0
0.000000e+00 -5.220824e-14 0
0.000000e+00 0.000000e+00 0
-1.638572e+01 8.704025e+01 0
-2.951966e+01 3.831730e+01 0
-3.840730e+01 6.156778e+00 0
-7.299071e+01 -1.220349e+01 0
-6.835770e+01 -2.975722e+01 0
-4.022713e+01 -2.711716e+01 0
-3.594739e+01 -3.189701e+01 0
-2.163895e+01 -4.035315e+01 0
-7.866840e+00 -3.483585e+01 0
4.210871e+00 -3.295195e+01 0
1.670703e+01 -3.357002e+01 0
2.989959e+01 -3.129389e+01 0
3.873296e+01 -1.949888e+01 0
4.246393e+01 -5.172557e+00 0
4.099887e+01 8.428091e+00 0
3.506101e+01 2.004989e+01 0
2.562078e+01 2.926601e+01 0
1.364692e+01 3.603953e+01 0
0.000000e+00 -8.452762e-14 0
0.000000e+00 0.000000e+00 0
-8.521184e+00 9.537515e+01 0
-1.128668e+01 3.439393e+01 0
0.000000e+00 -5.530291e-01 0
-3.505344e+01 -1.220349e+01 0
-3.505344e+01 -4.594907e+01 0
-3.047398e+01 -4.484386e+01 0
-3.230223e+01 -4.040554e+01 0
-1.938736e+01 -5.425046e+01 0
-6.126435e+00 -4.798280e+01 0
6.024703e+00 -4.563108e+01 0
1.878611e+01 -4.683726e+01 0
3.233583e+01 -4.251305e+01 0
4.060008e+01 -2.573402e+01 0
4.415678e+01 -6.133945e+00 0
4.236135e+01 1.245228e+01 0
3.600630e+01 2.812850e+01 0
2.618411e+01 4.035128e+01 0
1.389522e+01 4.917218e+01 0
0.000000e+00 -1.143609e-13 0
0.000000e+00 0.000000e+00 0
-4.898925e+00 9.841243e+01 0
-4.898925e+00 3.439393e+01 0
0.000000e+00 -2.894504e-16 0
0.000000e+00 -6.387197e-15 0
0.000000e+00 -5.181365e+01 0
-1.966785e+01 -5.896970e+01 0
-2.677286e+01 -4.305536e+01 0
-1.560328e+01 -6.672725e+01 0
-3.648624e+00 -6.044042e+01 0
7.700055e+00 -5.805322e+01 0
1.991993e+01 -6.008047e+01 0
3.304654e+01 -5.327313e+01 0
3.955150e+01 -3.140938e+01 0
4.255416e+01 -6.947175e+00 0
4.144221e+01 1.664031e+01 0
3.569115e+01 3.634969e+01 0
2.616700e+01 5.154459e+01 0
1.392954e+01 6.242201e+01 0
0.000000e+00 -1.441942e-13 0
0.000000e+00 0.000000e+00 0
-3.101465e+00 1.003112e+02 0
-3.101465e+00 3.439393e+01 0
0.000000e+00 0.000000e+00 0
0.000000e+00 0.000000e+00 0
0.000000e+00 -5.181365e+01 0
-8.130998e+00 -5.515828e+01 0
-1.892996e+01 -4.445911e+01 0
-1.054899e+01 -7.754988e+01 0
-8.469184e-01 -7.146267e+01 0
8.911753e+00 -6.937819e+01 0
1.971818e+01 -7.237577e+01 0
3.131965e+01 -6.229334e+01 0
3.375265e+01 -3.531366e+01 0
3.369869e+01 -8.038979e+00 0
3.541543e+01 1.936728e+01 0
3.231169e+01 4.351944e+01 0
2.445450e+01 6.227775e+01 0
1.318804e+01 7.553741e+01 0
0.000000e+00 -1.690552e-13 0
0.000000e+00 0.000000e+00 0
-1.988503e+00 1.015374e+02 0
-1.988503e+00 3.439393e+01 0
0.000000e+00 0.000000e+00 0
0.000000e+00 0.000000e+00 0
0.000000e+00 0.000000e+00 0
0.000000e+00 4.176513e-01 0
-8.183383e+00 -4.394415e+01 0
-4.811488e+00 -8.496530e+01 0
1.757190e+00 -8.004859e+01 0
9.345168e+00 -7.877412e+01 0
1.805071e+01 -8.265812e+01 0
2.702113e+01 -6.741391e+01 0
2.102503e+01 -3.380645e+01 0
1.333610e+01 -8.622555e+00 0
1.840285e+01 1.803782e+01 0
2.506221e+01 4.739366e+01 0
2.040663e+01 7.081312e+01 0
1.134770e+01 8.706177e+01 0
0.000000e+00 -1.988885e-13 0
0.000000e+00 0.000000e+00 0
-1.255272e+00 1.023148e+02 0
-1.255272e+00 3.439393e+01 0
0.000000e+00 0.000000e+00 0
0.000000e+00 0.000000e+00 0
0.000000e+00 0.000000e+00 0
0.000000e+00 0.000000e+00 0
-2.462751e+00 -4.450617e+01 0
-9.806355e-01 -8.756001e+01 0
3.293273e+00 -8.572658e+01 0
8.804775e+00 -8.579515e+01 0
1.523380e+01 -9.018563e+01 0
2.128040e+01 -6.529019e+01 0
-2.623281e+00 -2.152496e+01 0
-5.392811e-02 -5.306109e+00 0
3.642663e+00 7.643163e+00 0
1.087533e+01 4.150047e+01 0
1.781531e+01 7.609617e+01 0
9.044463e+00 9.609864e+01 0
0.000000e+00 -2.187774e-13 0
0.000000e+00 0.000000e+00 0
-8.038100e-01 1.028022e+02 0
-8.038100e-01 3.439393e+01 0
0.000000e+00 0.000000e+00 0
0.000000e+00 0.000000e+00 0
0.000000e+00 0.000000e+00 0
0.000000e+00 -5.000000e-05 0
-1.324885e+00 -4.580988e+01 0
4.782700e-01 -9.071962e+01 0
3.570395e+00 -8.990814e+01 0
7.435767e+00 -9.080510e+01 0
1.171190e+01 -9.522825e+01 0
1.457257e+01 -4.942155e+01 0
-3.517313e+00 -5.000000e-05 0
0.000000e+00 -2.008121e+00 0
5.226098e-01 7.643163e+00 0
5.226098e-01 3.319141e+01 0
5.858388e+00 7.273562e+01 0
4.171020e+00 1.050120e+02 0
0.000000e+00 -2.386662e-13 0
0.000000e+00 0.000000e+00 0
-5.555438e-01 1.031247e+02 0
-5.555438e-01 3.439393e+01 0
0.000000e+00 0.000000e+00 0
0.000000e+00 0.000000e+00 0
0.000000e+00 0.000000e+00 0
0.000000e+00 -5.000000e-05 0
-3.569087e-01 -4.633197e+01 0
8.154735e-01 -9.250131e+01 0
3.072162e+00 -9.273678e+01 0
5.711124e+00 -9.399833e+01 0
8.286930e+00 -9.737650e+01 0
8.931539e+00 -4.994560e+01 0
8.931539e+00 -5.000000e-05 0
0.000000e+00 -2.102065e-15 0
-5.554475e-15 8.000723e-15 0
-2.633172e+00 2.554332e+01 0
-5.242353e+00 7.169780e+01 0
-4.070282e-01 1.022088e+02 0
0.000000e+00 -2.287218e-13 0
0.000000e+00 0.000000e+00 0
-3.990664e-01 1.033619e+02 0
-3.990664e-01 3.439393e+01 0
0.000000e+00 0.000000e+00 0
0.000000e+00 0.000000e+00 0
0.000000e+00 0.000000e+00 0
0.000000e+00 -5.000000e-05 0
-1.926346e+00 -4.701530e+01 0
1.920059e-01 -9.419883e+01 0
2.190714e+00 -9.484087e+01 0
4.079863e+00 -9.605938e+01 0
5.660142e+00 -9.847307e+01 0
5.785714e+00 -5.007104e+01 0
5.785714e+00 -5.000000e-05 0
0.000000e+00 0.000000e+00 0
-1.053822e-14 -3.500000e-04 0
-4.995781e+00 2.527492e+01 0
-4.340293e+00 6.980617e+01 0
-1.424303e+00 9.993732e+01 0
0.000000e+00 -2.386662e-13 0
0.000000e+00 0.000000e+00 0
-2.090118e-01 1.035267e+02 0
-2.090118e-01 3.439393e+01 0
0.000000e+00 0.000000e+00 0
0.000000e+00 0.000000e+00 0
0.000000e+00 0.000000e+00 0
0.000000e+00 -5.000000e-05 0
-2.277622e+00 -4.843749e+01 0
-2.162580e-01 -9.662069e+01 0
1.423651e+00 -9.665409e+01 0
2.773311e+00 -9.749405e+01 0
3.780717e+00 -9.909527e+01 0
3.740957e+00 -5.007212e+01 0
3.740957e+00 -5.000000e-05 0
0.000000e+00 0.000000e+00 0
-1.056212e-14 -3.500000e-04 0
-5.007111e+00 2.515075e+01 0
-3.874176e+00 6.836750e+01 0
-1.423596e+00 9.783559e+01 0
0.000000e+00 -2.287218e-13 0
0.000000e+00 0.000000e+00 0
1.807222e-01 1.035725e+02 0
1.807222e-01 3.439393e+01 0
0.000000e+00 0.000000e+00 0
0.000000e+00 0.000000e+00 0
0.000000e+00 0.000000e+00 0
0.000000e+00 -5.000000e-05 0
-8.479312e-01 -4.905405e+01 0
-4.439024e-02 -9.788991e+01 0
9.516876e-01 -9.785309e+01 0
1.818366e+00 -9.843430e+01 0
2.430582e+00 -9.944804e+01 0
2.311387e+00 -5.003098e+01 0
2.311387e+00 -5.000000e-05 0
0.000000e+00 0.000000e+00 0
-6.970878e-15 -3.500000e-04 0
-3.304636e+00 2.441781e+01 0
-2.886663e+00 6.647991e+01 0
-9.628148e-01 9.603380e+01 0
0.000000e+00 -2.287218e-13 0
0.000000e+00 0.000000e+00 0
3.505322e-01 1.033447e+02 0
2.225851e+01 3.439393e+01 0
0.000000e+00 0.000000e+00 0
0.000000e+00 0.000000e+00 0
0.000000e+00 0.000000e+00 0
0.000000e+00 -5.000000e-05 0
-3.215183e-01 -4.923175e+01 0
4.151840e-02 -9.841857e+01 0
6.112263e-01 -9.853096e+01 0
1.122768e+00 -9.898414e+01 0
1.435492e+00 -9.959203e+01 0
1.243241e+00 -4.995203e+01 0
1.243241e+00 -5.000000e-05 0
0.000000e+00 0.000000e+00 0
-1.738688e-15 -3.500000e-04 0
-8.242478e-01 2.495604e+01 0
-1.313117e+00 6.623437e+01 0
-3.306181e-01 9.492705e+01 0
0.000000e+00 -2.287218e-13 0
0.000000e+00 0.000000e+00 0
5.615990e-01 8.114538e+01 0
2.246958e+01 1.231999e+01 0
0.000000e+00 0.000000e+00 0
0.000000e+00 0.000000e+00 0
0.000000e+00 0.000000e+00 0
0.000000e+00 -5.000000e-05 0
-4.027564e-01 -4.941311e+01 0
-5.251360e-02 -9.882299e+01 0
3.300615e-01 -9.894253e+01 0
6.287487e-01 -9.926481e+01 0
7.396095e-01 -9.956943e+01 0
5.728746e-01 -4.983727e+01 0
3.912503e-01 -5.000000e-05 0
0.000000e+00 0.000000e+00 0
-3.461834e-16 -3.500000e-04 0
-1.641128e-01 2.510724e+01 0
-1.123556e+00 6.617940e+01 0
-9.172796e-02 9.471073e+01 0
0.000000e+00 -2.287218e-13 0
0.000000e+00 0.000000e+00 0
1.098578e+00 8.070485e+01 0
1.098578e+00 1.231999e+01 0
0.000000e+00 0.000000e+00 0
0.000000e+00 0.000000e+00 0
0.000000e+00 0.000000e+00 0
0.000000e+00 -5.000000e-05 0
-5.057985e-01 -4.957394e+01 0
-1.620597e-01 -9.914624e+01 0
1.342565e-01 -9.921738e+01 0
3.250159e-01 -9.939679e+01 0
3.374552e-01 -9.953573e+01 0
2.179396e-01 -4.978398e+01 0
3.631530e-02 0.000000e+00 0
0.000000e+00 0.000000e+00 0
0.000000e+00 0.000000e+00 0
0.000000e+00 2.554332e+01 0
-2.768269e+00 6.589689e+01 0
-3.422460e-01 9.391022e+01 0
0.000000e+00 -2.287218e-13 0
0.000000e+00 0.000000e+00 0
1.454926e+00 8.003848e+01 0
1.454926e+00 1.231999e+01 0
0.000000e+00 0.000000e+00 0
0.000000e+00 0.000000e+00 0
0.000000e+00 0.000000e+00 0
0.000000e+00 -5.000000e-05 0
-3.674773e-01 -4.975653e+01 0
-1.768677e-01 -9.946497e+01 0
4.572663e-02 -9.943330e+01 0
2.025242e-01 -9.946955e+01 0
2.478770e-01 -9.946239e+01 0
2.785450e-01 -4.972030e+01 0
2.785450e-01 -2.650000e-03 0
0.000000e+00 0.000000e+00 0
0.000000e+00 0.000000e+00 0
0.000000e+00 2.554332e+01 0
-3.082674e+00 6.438530e+01 0
-4.201519e-01 9.213606e+01 0
0.000000e+00 -2.187774e-13 0
0.000000e+00 0.000000e+00 0
1.606819e+00 7.923890e+01 0
1.606819e+00 1.231999e+01 0
0.000000e+00 0.000000e+00 0
0.000000e+00 0.000000e+00 0
0.000000e+00 0.000000e+00 0
0.000000e+00 -5.000000e-05 0
-3.356094e-01 -4.976482e+01 0
-1.669120e-01 -9.956139e+01 0
2.402499e-02 -9.959965e+01 0
1.937758e-01 -9.960048e+01 0
3.697671e-01 -9.961318e+01 0
7.623473e-01 -4.981837e+01 0
7.623473e-01 -2.650000e-03 0
0.000000e+00 0.000000e+00 0
0.000000e+00 0.000000e+00 0
0.000000e+00 2.554332e+01 0
-1.894238e+00 6.339542e+01 0
-3.290404e-01 9.098543e+01 0
0.000000e+00 -2.287218e-13 0
0.000000e+00 0.000000e+00 0
1.541717e+00 7.841949e+01 0
1.541717e+00 1.231999e+01 0
0.000000e+00 0.000000e+00 0
0.000000e+00 0.000000e+00 0
0.000000e+00 0.000000e+00 0
0.000000e+00 -5.000000e-05 0
-2.960253e-01 -4.992204e+01 0
-1.347408e-01 -9.982286e+01 0
2.372359e-02 -9.979672e+01 0
1.789405e-01 -9.981791e+01 0
3.708094e-01 -1.000353e+02 0
6.613883e-01 -5.011585e+01 0
6.613883e-01 -2.650000e-03 0
0.000000e+00 0.000000e+00 0
0.000000e+00 0.000000e+00 0
0.000000e+00 2.554332e+01 0
-1.483047e+00 6.297789e+01 0
-8.576221e-01 9.039713e+01 0
0.000000e+00 -2.187774e-13 0
0.000000e+00 0.000000e+00 0
1.305206e+00 7.768551e+01 0
1.305206e+00 1.231999e+01 0
0.000000e+00 0.000000e+00 0
0.000000e+00 0.000000e+00 0
0.000000e+00 0.000000e+00 0
0.000000e+00 -5.000000e-05 0
-9.805044e-02 -4.992392e+01 0
-6.429159e-02 -9.988016e+01 0
2.658013e-02 -9.991571e+01 0
1.268126e-01 -9.995019e+01 0
2.262875e-01 -1.000993e+02 0
2.154176e-01 -5.011115e+01 0
2.154176e-01 -2.650000e-03 0
0.000000e+00 0.000000e+00 0
0.000000e+00 0.000000e+00 0
0.000000e+00 2.554332e+01 0
-2.200227e+00 6.293869e+01 0
-2.059883e+00 8.966457e+01 0
0.000000e+00 -2.187774e-13 0
0.000000e+00 0.000000e+00 0
9.810890e-01 7.710440e+01 0
9.810890e-01 1.231999e+01 0
0.000000e+00 0.000000e+00 0
0.000000e+00 0.000000e+00 0
0.000000e+00 0.000000e+00 0
0.000000e+00 -5.000000e-05 0
-5.497149e-02 -4.995442e+01 0
-3.490768e-02 -9.994680e+01 0
1.992552e-02 -9.998927e+01 0
7.542863e-02 -1.000191e+02 0
1.163108e-01 -1.001245e+02 0
8.726086e-02 -5.010490e+01 0
7.414688e-02 -2.650000e-03 0
0.000000e+00 0.000000e+00 0
0.000000e+00 0.000000e+00 0
0.000000e+00 2.554332e+01 0
-3.012534e+00 6.301010e+01 0
-1.034526e+00 8.835385e+01 0
0.000000e+00 -2.187774e-13 0
0.000000e+00 0.000000e+00 0
6.511591e-01 7.669699e+01 0
6.511591e-01 1.231999e+01 0
0.000000e+00 0.000000e+00 0
0.000000e+00 0.000000e+00 0
0.000000e+00 0.000000e+00 0
0.000000e+00 0.000000e+00 0
-4.786952e-02 -4.995860e+01 0
-1.451427e-02 -9.997000e+01 0
1.273152e-02 -1.000267e+02 0
3.896240e-02 -1.000473e+02 0
5.132718e-02 -1.001112e+02 0
3.651590e-02 -5.007923e+01 0
0.000000e+00 0.000000e+00 0
0.000000e+00 0.000000e+00 0
0.000000e+00 0.000000e+00 0
0.000000e+00 2.554332e+01 0
-1.624380e+00 6.111856e+01 0
1.030365e+00 8.680208e+01 0
0.000000e+00 -2.187774e-13 0
0.000000e+00 0.000000e+00 0
3.683371e-01 7.644831e+01 0
3.683371e-01 1.231999e+01 0
0.000000e+00 0.000000e+00 0
0.000000e+00 0.000000e+00 0
0.000000e+00 0.000000e+00 0
0.000000e+00 -6.100000e-03 0
-4.786952e-02 -5.000934e+01 0
-3.196487e-03 -1.000230e+02 0
6.944185e-03 -1.000430e+02 0
1.675619e-02 -1.000580e+02 0
1.842156e-02 -1.001221e+02 0
1.573741e-02 -5.008733e+01 0
0.000000e+00 0.000000e+00 0
0.000000e+00 0.000000e+00 0
0.000000e+00 0.000000e+00 0
0.000000e+00 0.000000e+00 0
0.000000e+00 3.513192e+01 0
1.992985e+00 8.701571e+01 0
0.000000e+00 -2.187774e-13 0
0.000000e+00 0.000000e+00 0
1.487540e-01 7.632586e+01 0
1.487540e-01 1.231999e+01 0
0.000000e+00 0.000000e+00 0
0.000000e+00 0.000000e+00 0
0.000000e+00 0.000000e+00 0
0.000000e+00 0.000000e+00 0
0.000000e+00 -5.000045e+01 0
3.494798e-04 -1.000220e+02 0
1.977940e-03 -1.000468e+02 0
3.091099e-03 -1.000589e+02 0
-6.523186e-04 -1.001102e+02 0
-2.882791e-02 -5.007653e+01 0
0.000000e+00 0.000000e+00 0
0.000000e+00 0.000000e+00 0
0.000000e+00 0.000000e+00 0
0.000000e+00 0.000000e+00 0
0.000000e+00 3.513192e+01 0
2.888396e+00 8.826616e+01 0
0.000000e+00 -2.287218e-13 0
0.000000e+00 0.000000e+00 0
-3.311914e-02 7.629842e+01 0
-3.311914e-02 1.231999e+01 0
0.000000e+00 0.000000e+00 0
0.000000e+00 0.000000e+00 0
0.000000e+00 0.000000e+00 0
0.000000e+00 0.000000e+00 0
0.000000e+00 -5.000000e+01 0
0.000000e+00 -1.000213e+02 0
-2.100153e-03 -1.000457e+02 0
-5.343878e-03 -1.000554e+02 0
-1.161360e-02 -1.000899e+02 0
-5.577802e-02 -5.005894e+01 0
0.000000e+00 0.000000e+00 0
0.000000e+00 0.000000e+00 0
0.000000e+00 0.000000e+00 0
0.000000e+00 0.000000e+00 0
0.000000e+00 3.513192e+01 0
3.141237e+00 8.980485e+01 0
0.000000e+00 -2.287218e-13 0
0.000000e+00 0.000000e+00 0
-2.141955e-01 7.635923e+01 0
-2.141955e-01 1.231999e+01 0
0.000000e+00 0.000000e+00 0
0.000000e+00 0.000000e+00 0
0.000000e+00 0.000000e+00 0
0.000000e+00 0.000000e+00 0
0.000000e+00 -5.000000e+01 0
0.000000e+00 -1.000194e+02 0
-4.743869e-03 -1.000414e+02 0
-1.045054e-02 -1.000493e+02 0
-1.822923e-02 -1.000594e+02 0
-6.452476e-02 -5.003203e+01 0
0.000000e+00 0.000000e+00 0
0.000000e+00 0.000000e+00 0
0.000000e+00 0.000000e+00 0
0.000000e+00 0.000000e+00 0
0.000000e+00 3.513192e+01 0
3.457759e+00 9.130206e+01 0
0.000000e+00 -2.386662e-13 0
0.000000e+00 0.000000e+00 0
-3.315459e-01 7.651424e+01 0
-3.315459e-01 1.231999e+01 0
0.000000e+00 0.000000e+00 0
0.000000e+00 0.000000e+00 0
0.000000e+00 0.000000e+00 0
0.000000e+00 0.000000e+00 0
0.000000e+00 -5.000000e+01 0
0.000000e+00 -1.000165e+02 0
-6.254182e-03 -1.000352e+02 0
-1.329735e-02 -1.000418e+02 0
-2.186086e-02 -1.000354e+02 0
-4.069172e-02 -5.001229e+01 0
0.000000e+00 0.000000e+00 0
0.000000e+00 0.000000e+00 0
0.000000e+00 0.000000e+00 0
0.000000e+00 0.000000e+00 0
0.000000e+00 3.513192e+01 0
2.229050e+00 9.313534e+01 0
0.000000e+00 -2.386662e-13 0
0.000000e+00 0.000000e+00 0
-2.234106e-01 7.669329e+01 0
-2.234106e-01 1.231999e+01 0
0.000000e+00 0.000000e+00 0
0.000000e+00 0.000000e+00 0
0.000000e+00 0.000000e+00 0
0.000000e+00 0.000000e+00 0
0.000000e+00 -5.000000e+01 0
0.000000e+00 -1.000131e+02 0
-6.926746e-03 -1.000280e+02 0
-1.456581e-02 -1.000336e+02 0
-2.346884e-02 -1.000318e+02 0
-2.117509e-02 -5.001306e+01 0
0.000000e+00 0.000000e+00 0
0.000000e+00 0.000000e+00 0
0.000000e+00 0.000000e+00 0
0.000000e+00 0.000000e+00 0
0.000000e+00 -5.885491e+01 0
3.239702e-01 -6.071447e-01 0
0.000000e+00 -2.386662e-13 0
0.000000e+00 0.000000e+00 0
-4.571370e-02 7.673935e+01 0
-4.571370e-02 1.231999e+01 0
0.000000e+00 0.000000e+00 0
0.000000e+00 0.000000e+00 0
0.000000e+00 0.000000e+00 0
0.000000e+00 0.000000e+00 0
0.000000e+00 -5.000000e+01 0
0.000000e+00 -1.000095e+02 0
-6.939583e-03 -1.000204e+02 0
-1.461688e-02 -1.000251e+02 0
-2.353044e-02 -1.000288e+02 0
-1.969140e-02 -5.001460e+01 0
0.000000e+00 0.000000e+00 0
0.000000e+00 0.000000e+00 0
0.000000e+00 0.000000e+00 0
0.000000e+00 0.000000e+00 0
0.000000e+00 -5.885491e+01 0
0.000000e+00 -7.254179e-01 0
0.000000e+00 -2.386662e-13 0
0.000000e+00 -1.261822e-03 0
0.000000e+00 7.673935e+01 0
0.000000e+00 1.231999e+01 0
0.000000e+00 0.000000e+00 0
0.000000e+00 0.000000e+00 0
0.000000e+00 0.000000e+00 0
0.000000e+00 0.000000e+00 0
0.000000e+00 -5.000000e+01 0
0.000000e+00 -1.000060e+02 0
-6.326170e-03 -1.000132e+02 0
-1.349803e-02 -1.000168e+02 0
-2.206847e-02 -1.000266e+02 0
-2.081368e-02 -5.001693e+01 0
0.000000e+00 0.000000e+00 0
0.000000e+00 0.000000e+00 0
0.000000e+00 0.000000e+00 0
0.000000e+00 -2.427411e-13 0
5.841239e+01 -5.885491e+01 0
1.169460e+01 -8.698529e-01 0
0.000000e+00 -2.386662e-13 0
0.000000e+00 0.000000e+00 0
0.000000e+00 0.000000e+00 0
0.000000e+00 0.000000e+00 0
0.000000e+00 0.000000e+00 0
0.000000e+00 0.000000e+00 0
0.000000e+00 0.000000e+00 0
0.000000e+00 0.000000e+00 0
0.000000e+00 -5.000000e+01 0
0.000000e+00 -1.000030e+02 0
-4.987990e-03 -1.000067e+02 0
-1.094430e-02 -1.000093e+02 0
-1.859950e-02 -1.000214e+02 0
-3.539803e-02 -5.001587e+01 0
0.000000e+00 0.000000e+00 0
0.000000e+00 0.000000e+00 0
0.000000e+00 0.000000e+00 0
0.000000e+00 -5.797320e+01 0
5.841239e+01 -6.929066e+01 0
-1.328963e+01 5.845080e+01 0
0.000000e+00 -2.983328e-13 0
0.000000e+00 0.000000e+00 0
0.000000e+00 0.000000e+00 0
0.000000e+00 0.000000e+00 0
0.000000e+00 0.000000e+00 0
0.000000e+00 0.000000e+00 0
0.000000e+00 0.000000e+00 0
0.000000e+00 0.000000e+00 0
0.000000e+00 -5.000000e+01 0
0.000000e+00 -1.000009e+02 0
-2.811547e-03 -1.000020e+02 0
-6.498243e-03 -1.000031e+02 0
-1.199237e-02 -1.000020e+02 0
-2.774066e-02 -5.000000e+01 0
0.000000e+00 0.000000e+00 0
0.000000e+00 0.000000e+00 0
0.000000e+00 0.000000e+00 0
0.000000e+00 -5.797320e+01 0
-5.841219e+01 -4.379712e+01 0
-6.924368e+01 5.877083e+01 0
0.000000e+00 -1.939163e-13 0
0.000000e+00 0.000000e+00 0
0.000000e+00 0.000000e+00 0
0.000000e+00 0.000000e+00 0
0.000000e+00 0.000000e+00 0
0.000000e+00 0.000000e+00 0
0.000000e+00 0.000000e+00 0
0.000000e+00 0.000000e+00 0
0.000000e+00 -5.000000e+01 0
0.000000e+00 -1.000000e+02 0
-6.373076e-18 -1.000000e+02 0
-1.547747e-17 -1.000000e+02 0
-3.192032e-17 -1.000000e+02 0
-3.216886e-17 -5.000000e+01 0
0.000000e+00 0.000000e+00 0
0.000000e+00 0.000000e+00 0
0.000000e+00 0.000000e+00 0
0.000000e+00 0.000000e+00 0
-4.872769e-13 0.000000e+00 0
-3.679438e-13 0.000000e+00 0
0.000000e+00 0.000000e+00 0
</DataArray>
<DataArray Name="Type and Neighbourhood" type="Float64" format="ascii" NumberOfComponents="3">
0.000000e+00 0.000000e+00 0
0.000000e+00 0.000000e+00 0
0.000000e+00 0.000000e+00 0
0.000000e+00 0.000000e+00 0
0.000000e+00 0.000000e+00 0
0.000000e+00 0.000000e+00 0
0.000000e+00 0.000000e+00 0
0.000000e+00 0.000000e+00 0
0.000000e+00 0.000000e+00 0