<?xml version="1.0"?>
<VTKFile type="StructuredGrid">
<StructuredGrid WholeExtent="0 19 0 33 0 0 ">
<Piece Extent="0 19 0 33 0 0 ">
<Points>
<DataArray type="Float64" format="ascii" NumberOfComponents="3">
0.000000e+00 0.000000e+00 0.000000e+00
1.052632e-01 0.000000e+00 0.000000e+00
2.105263e-01 0.000000e+00 0.000000e+00
3.157895e-01 0.000000e+00 0.000000e+00
4.210526e-01 0.000000e+00 0.000000e+00
5.263158e-01 0.000000e+00 0.000000e+00
6.315789e-01 0.000000e+00 0.000000e+00
7.368421e-01 0.000000e+00 0.000000e+00
8.421053e-01 0.000000e+00 0.000000e+00
9.473684e-01 0.000000e+00 0.000000e+00
1.052632e+00 0.000000e+00 0.000000e+00
1.157895e+00 0.000000e+00 0.000000e+00
1.263158e+00 0.000000e+00 0.000000e+00
1.368421e+00 0.000000e+00 0.000000e+00
1.473684e+00 0.000000e+00 0.000000e+00
1.578947e+00 0.000000e+00 0.000000e+00
1.684211e+00 0.000000e+00 0.000000e+00
1.789474e+00 0.000000e+00 0.000000e+00
1.894737e+00 0.000000e+00 0.000000e+00
2.000000e+00 0.000000e+00 0.000000e+00
0.000000e+00 1.060606e-01 0.000000e+00
1.052632e-01 1.060606e-01 0.000000e+00
2.105263e-01 1.060606e-01 0.000000e+00
3.157895e-01 1.060606e-01 0.000000e+00
4.210526e-01 1.060606e-01 0.000000e+00
5.263158e-01 1.060606e-01 0.000000e+00
6.315789e-01 1.060606e-01 0.000000e+00
7.368421e-01 1.060606e-01 0.000000e+00
8.421053e-01 1.060606e-01 0.000000e+00
9.473684e-01 1.060606e-01 0.000000e+00
1.052632e+00 1.060606e-01 0.000000e+00
1.157895e+00 1.060606e-01 0.000000e+00
1.263158e+00 1.060606e-01 0.000000e+00
1.368421e+00 1.060606e-01 0.000000e+00
1.473684e+00 1.060606e-01 0.000000e+00
1.578947e+00 1.060606e-01 0.000000e+00
1.684211e+00 1.060606e-01 0.000000e+00
1.789474e+00 1.060606e-01 0.000000e+00
1.894737e+00 1.060606e-01 0.000000e+00
2.000000e+00 1.060606e-01 0.000000e+00
0.000000e+00 2.121212e-01 0.000000e+00
1.052632e-01 2.121212e-01 0.000000e+00
2.105263e-01 2.121212e-01 0.000000e+00
3.157895e-01 2.121212e-01 0.000000e+00
4.210526e-01 2.121212e-01 0.000000e+00
5.263158e-01 2.121212e-01 0.000000e+00
6.315789e-01 2.121212e-01 0.000000e+00
7.368421e-01 2.121212e-01 0.000000e+00
8.421053e-01 2.121212e-01 0.000000e+00
9.473684e-01 2.121212e-01 0.000000e+00
1.052632e+00 2.121212e-01 0.000000e+00
1.157895e+00 2.121212e-01 0.000000e+00
1.263158e+00 2.121212e-01 0.000000e+00
1.368421e+00 2.121212e-01 0.000000e+00
1.473684e+00 2.121212e-01 0.000000e+00
1.578947e+00 2.121212e-01 0.000000e+00
1.684211e+00 2.121212e-01 0.000000e+00
1.789474e+00 2.121212e-01 0.000000e+00
1.894737e+00 2.121212e-01 0.000000e+00
2.000000e+00 2.121212e-01 0.000000e+00
0.000000e+00 3.181818e-01 0.000000e+00
1.052632e-01 3.181818e-01 0.000000e+00
2.105263e-01 3.181818e-01 0.000000e+00
3.157895e-01 3.181818e-01 0.000000e+00
4.210526e-01 3.181818e-01 0.000000e+00
5.263158e-01 3.181818e-01 0.000000e+00
6.315789e-01 3.181818e-01 0.000000e+00
7.368421e-01 3.181818e-01 0.000000e+00
8.421053e-01 3.181818e-01 0.000000e+00
9.473684e-01 3.181818e-01 0.000000e+00
1.052632e+00 3.181818e-01 0.000000e+00
1.157895e+00 3.181818e-01 0.000000e+00
1.263158e+00 3.181818e-01 0.000000e+00
1.368421e+00 3.181818e-01 0.000000e+00
1.473684e+00 3.181818e-01 0.000000e+00
1.578947e+00 3.181818e-01 0.000000e+00
1.684211e+00 3.181818e-01 0.000000e+00
1.789474e+00 3.181818e-01 0.000000e+00
1.894737e+00 3.181818e-01 0.000000e+00
2.000000e+00 3.181818e-01 0.000000e+00
0.000000e+00 4.242424e-01 0.000000e+00
1.052632e-01 4.242424e-01 0.000000e+00
2.105263e-01 4.242424e-01 0.000000e+00
3.157895e-01 4.242424e-01 0.000000e+00
4.210526e-01 4.242424e-01 0.000000e+00
5.263158e-01 4.242424e-01 0.000000e+00
6.315789e-01 4.242424e-01 0.000000e+00
7.368421e-01 4.242424e-01 0.000000e+00
8.421053e-01 4.242424e-01 0.000000e+00
9.473684e-01 4.242424e-01 0.000000e+00
1.052632e+00 4.242424e-01 0.000000e+00
1.157895e+00 4.242424e-01 0.000000e+00
1.263158e+00 4.242424e-01 0.000000e+00
1.368421e+00 4.242424e-01 0.000000e+00
1.473684e+00 4.242424e-01 0.000000e+00
1.578947e+00 4.242424e-01 0.000000e+00
1.684211e+00 4.242424e-01 0.000000e+00
1.789474e+00 4.242424e-01 0.000000e+00
1.894737e+00 4.242424e-01 0.000000e+00
2.000000e+00 4.242424e-01 0.000000e+00
0.000000e+00 5.303030e-01 0.000000e+00
1.052632e-01 5.303030e-01 0.000000e+00
2.105263e-01 5.303030e-01 0.000000e+00
3.157895e-01 5.303030e-01 0.000000e+00
4.210526e-01 5.303030e-01 0.000000e+00
5.263158e-01 5.303030e-01 0.000000e+00
6.315789e-01 5.303030e-01 0.000000e+00
7.368421e-01 5.303030e-01 0.000000e+00
8.421053e-01 5.303030e-01 0.000000e+00
9.473684e-01 5.303030e-01 0.000000e+00
1.052632e+00 5.303030e-01 0.000000e+00
1.157895e+00 5.303030e-01 0.000000e+00
1.263158e+00 5.303030e-01 0.000000e+00
1.368421e+00 5.303030e-01 0.000000e+00
1.473684e+00 5.303030e-01 0.000000e+00
1.578947e+00 5.303030e-01 0.000000e+00
1.684211e+00 5.303030e-01 0.000000e+00
1.789474e+00 5.303030e-01 0.000000e+00
1.894737e+00 5.303030e-01 0.000000e+00
2.000000e+00 5.303030e-01 0.000000e+00
0.000000e+00 6.363636e-01 0.000000e+00
1.052632e-01 6.363636e-01 0.000000e+00
2.105263e-01 6.363636e-01 0.000000e+00
3.157895e-01 6.363636e-01 0.000000e+00
4.210526e-01 6.363636e-01 0.000000e+00
5.263158e-01 6.363636e-01 0.000000e+00
6.315789e-01 6.363636e-01 0.000000e+00
7.368421e-01 6.363636e-01 0.000000e+00
8.421053e-01 6.363636e-01 0.000000e+00
9.473684e-01 6.363636e-01 0.000000e+00
1.052632e+00 6.363636e-01 0.000000e+00
1.157895e+00 6.363636e-01 0.000000e+00
1.263158e+00 6.363636e-01 0.000000e+00
1.368421e+00 6.363636e-01 0.000000e+00
1.473684e+00 6.363636e-01 0.000000e+00
1.578947e+00 6.363636e-01 0.000000e+00
1.684211e+00 6.363636e-01 0.000000e+00
1.789474e+00 6.363636e-01 0.000000e+00
1.894737e+00 6.363636e-01 0.000000e+00
2.000000e+00 6.363636e-01 0.000000e+00
0.000000e+00 7.424242e-01 0.000000e+00
1.052632e-01 7.424242e-01 0.000000e+00
2.105263e-01 7.424242e-01 0.000000e+00
3.157895e-01 7.424242e-01 0.000000e+00
4.210526e-01 7.424242e-01 0.000000e+00
5.263158e-01 7.424242e-01 0.000000e+00
6.315789e-01 7.424242e-01 0.000000e+00
7.368421e-01 7.424242e-01 0.000000e+00
8.421053e-01 7.424242e-01 0.000000e+00
9.473684e-01 7.424242e-01 0.000000e+00
1.052632e+00 7.424242e-01 0.000000e+00
1.157895e+00 7.424242e-01 0.000000e+00
1.263158e+00 7.424242e-01 0.000000e+00
1.368421e+00 7.424242e-01 0.000000e+00
1.473684e+00 7.424242e-01 0.000000e+00
1.578947e+00 7.424242e-01 0.000000e+00
1.684211e+00 7.424242e-01 0.000000e+00
1.789474e+00 7.424242e-01 0.000000e+00
1.894737e+00 7.424242e-01 0.000000e+00
2.000000e+00 7.424242e-01 0.000000e+00
0.000000e+00 8.484848e-01 0.000000e+00
1.052632e-01 8.484848e-01 0.000000e+00
2.105263e-01 8.484848e-01 0.000000e+00
3.157895e-01 8.484848e-01 0.000000e+00
4.210526e-01 8.484848e-01 0.000000e+00
5.263158e-01 8.484848e-01 0.000000e+00
6.315789e-01 8.484848e-01 0.000000e+00
7.368421e-01 8.484848e-01 0.000000e+00
8.421053e-01 8.484848e-01 0.000000e+00
9.473684e-01 8.484848e-01 0.000000e+00
1.052632e+00 8.484848e-01 0.000000e+00
1.157895e+00 8.484848e-01 0.000000e+00
1.263158e+00 8.484848e-01 0.000000e+00
1.368421e+00 8.484848e-01 0.000000e+00
1.473684e+00 8.484848e-01 0.000000e+00
1.578947e+00 8.484848e-01 0.000000e+00
1.684211e+00 8.484848e-01 0.000000e+00
1.789474e+00 8.484848e-01 0.000000e+00
1.894737e+00 8.484848e-01 0.000000e+00
2.000000e+00 8.484848e-01 0.000000e+00
0.000000e+00 9.545455e-01 0.000000e+00
1.052632e-01 9.545455e-01 0.000000e+00
2.105263e-01 9.545455e-01 0.000000e+00
3.157895e-01 9.545455e-01 0.000000e+00
4.210526e-01 9.545455e-01 0.000000e+00
5.263158e-01 9.545455e-01 0.000000e+00
6.315789e-01 9.545455e-01 0.000000e+00
7.368421e-01 9.545455e-01 0.000000e+00
8.421053e-01 9.545455e-01 0.000000e+00
9.473684e-01 9.545455e-01 0.000000e+00
1.052632e+00 9.545455e-01 0.000000e+00
1.157895e+00 9.545455e-01 0.000000e+00
1.263158e+00 9.545455e-01 0.000000e+00
1.368421e+00 9.545455e-01 0.000000e+00
1.473684e+00 9.545455e-01 0.000000e+00
1.578947e+00 9.545455e-01 0.000000e+00
1.684211e+00 9.545455e-01 0.000000e+00
1.789474e+00 9.545455e-01 0.000000e+00
1.894737e+00 9.545455e-01 0.000000e+00
2.000000e+00 9.545455e-01 0.000000e+00
0.000000e+00 1.060606e+00 0.000000e+00
1.052632e-01 1.060606e+00 0.000000e+00
2.105263e-01 1.060606e+00 0.000000e+00
3.157895e-01 1.060606e+00 0.000000e+00
4.210526e-01 1.060606e+00 0.000000e+00
5.263158e-01 1.060606e+00 0.000000e+00
6.315789e-01 1.060606e+00 0.000000e+00
7.368421e-01 1.060606e+00 0.000000e+00
8.421053e-01 1.060606e+00 0.000000e+00
9.473684e-01 1.060606e+00 0.000000e+00
1.052632e+00 1.060606e+00 0.000000e+00
1.157895e+00 1.060606e+00 0.000000e+00
1.263158e+00 1.060606e+00 0.000000e+00
1.368421e+00 1.060606e+00 0.000000e+00
1.473684e+00 1.060606e+00 0.000000e+00
1.578947e+00 1.060606e+00 0.000000e+00
1.684211e+00 1.060606e+00 0.000000e+00
1.789474e+00 1.060606e+00 0.000000e+00
1.894737e+00 1.060606e+00 0.000000e+00
2.000000e+00 1.060606e+00 0.000000e+00
0.000000e+00 1.166667e+00 0.000000e+00
1.052632e-01 1.166667e+00 0.000000e+00
2.105263e-01 1.166667e+00 0.000000e+00
3.157895e-01 1.166667e+00 0.000000e+00
4.210526e-01 1.166667e+00 0.000000e+00
5.263158e-01 1.166667e+00 0.000000e+00
6.315789e-01 1.166667e+00 0.000000e+00
7.368421e-01 1.166667e+00 0.000000e+00
8.421053e-01 1.166667e+00 0.000000e+00
9.473684e-01 1.166667e+00 0.000000e+00
1.052632e+00 1.166667e+00 0.000000e+00
1.157895e+00 1.166667e+00 0.000000e+00
1.263158e+00 1.166667e+00 0.000000e+00
1.368421e+00 1.166667e+00 0.000000e+00
1.473684e+00 1.166667e+00 0.000000e+00
1.578947e+00 1.166667e+00 0.000000e+00
1.684211e+00 1.166667e+00 0.000000e+00
1.789474e+00 1.166667e+00 0.000000e+00
1.894737e+00 1.166667e+00 0.000000e+00
2.000000e+00 1.166667e+00 0.000000e+00
0.000000e+00 1.272727e+00 0.000000e+00
1.052632e-01 1.272727e+00 0.000000e+00
2.105263e-01 1.272727e+00 0.000000e+00
3.157895e-01 1.272727e+00 0.000000e+00
4.210526e-01 1.272727e+00 0.000000e+00
5.263158e-01 1.272727e+00 0.000000e+00
6.315789e-01 1.272727e+00 0.000000e+00
7.368421e-01 1.272727e+00 0.000000e+00
8.421053e-01 1.272727e+00 0.000000e+00
9.473684e-01 1.272727e+00 0.000000e+00
1.052632e+00 1.272727e+00 0.000000e+00
[...]
<PointData>
<DataArray Name="Velocity" type="Float64" format="ascii" NumberOfComponents="3">
0.000000e+00 0.000000e+00 0
0.000000e+00 0.000000e+00 0
0.000000e+00 0.000000e+00 0
0.000000e+00 0.000000e+00 0
0.000000e+00 0.000000e+00 0
0.000000e+00 0.000000e+00 0
0.000000e+00 0.000000e+00 0
0.000000e+00 0.000000e+00 0
0.000000e+00 0.000000e+00 0
0.000000e+00 0.000000e+00 0
0.000000e+00 0.000000e+00 0
1.204504e-15 0.000000e+00 0
0.000000e+00 0.000000e+00 0
0.000000e+00 0.000000e+00 0
0.000000e+00 0.000000e+00 0
-7.574803e-16 0.000000e+00 0
0.000000e+00 0.000000e+00 0
0.000000e+00 0.000000e+00 0
0.000000e+00 0.000000e+00 0
0.000000e+00 0.000000e+00 0
0.000000e+00 0.000000e+00 0
0.000000e+00 0.000000e+00 0
0.000000e+00 0.000000e+00 0
-9.924812e+01 -8.907437e+00 0
-9.029387e+01 -1.436720e+01 0
-8.487516e+01 -1.154028e+01 0
-7.884035e+01 -3.658964e+01 0
-6.876579e+01 -6.199852e+01 0
-2.794967e+01 -4.816224e+01 0
-1.819193e+00 -2.790070e+01 0
2.113365e+01 -2.269946e+01 0
4.405196e+01 -2.523333e+01 0
6.932796e+01 -3.129474e+01 0
9.986403e+01 -2.997036e+01 0
1.185712e+02 -1.884554e+01 0
1.249544e+02 -9.467490e+00 0
1.279907e+02 -4.188568e+00 0
7.619026e+01 -1.129274e+00 0
7.619026e+01 0.000000e+00 0
0.000000e+00 0.000000e+00 0
0.000000e+00 0.000000e+00 0
0.000000e+00 0.000000e+00 0
0.000000e+00 0.000000e+00 0
0.000000e+00 -8.907437e+00 0
0.000000e+00 -8.907437e+00 0
0.000000e+00 0.000000e+00 0
0.000000e+00 -3.697670e-01 0
-2.167136e+01 -4.154033e+01 0
-1.414521e+01 -6.749899e+01 0
1.076227e+00 -4.945516e+01 0
2.046150e+01 -4.621866e+01 0
4.089053e+01 -4.855942e+01 0
6.294201e+01 -5.623489e+01 0
8.562421e+01 -4.961634e+01 0
9.198759e+01 -2.528049e+01 0
5.292126e+01 -9.490849e+00 0
5.292126e+01 -3.059294e+00 0
0.000000e+00 0.000000e+00 0
0.000000e+00 0.000000e+00 0
0.000000e+00 0.000000e+00 0
0.000000e+00 0.000000e+00 0
0.000000e+00 0.000000e+00 0
0.000000e+00 0.000000e+00 0
0.000000e+00 -2.331035e-15 0
0.000000e+00 -2.331035e-15 0
0.000000e+00 0.000000e+00 0
0.000000e+00 -9.676634e-17 0
-1.535252e+00 -3.928273e+01 0
-3.270089e+00 -7.129232e+01 0
6.218356e+00 -6.276958e+01 0
1.911080e+01 -6.281538e+01 0
3.432019e+01 -6.803566e+01 0
5.254350e+01 -7.636731e+01 0
7.006329e+01 -5.923598e+01 0
3.908952e+01 -1.884894e+01 0
0.000000e+00 -2.483712e-15 0
0.000000e+00 -8.006032e-16 0
0.000000e+00 0.000000e+00 0
0.000000e+00 0.000000e+00 0
0.000000e+00 0.000000e+00 0
0.000000e+00 0.000000e+00 0
0.000000e+00 0.000000e+00 0
0.000000e+00 0.000000e+00 0
0.000000e+00 0.000000e+00 0
0.000000e+00 0.000000e+00 0
0.000000e+00 0.000000e+00 0
0.000000e+00 0.000000e+00 0
-1.570626e+00 -3.968460e+01 0
9.757498e-02 -7.557336e+01 0
6.836867e+00 -7.200560e+01 0
1.547558e+01 -7.453338e+01 0
2.503813e+01 -8.224540e+01 0
3.537027e+01 -9.224878e+01 0
4.334275e+01 -4.841992e+01 0
0.000000e+00 0.000000e+00 0
0.000000e+00 0.000000e+00 0
0.000000e+00 0.000000e+00 0
0.000000e+00 0.000000e+00 0
0.000000e+00 0.000000e+00 0
0.000000e+00 0.000000e+00 0
0.000000e+00 0.000000e+00 0
0.000000e+00 0.000000e+00 0
0.000000e+00 0.000000e+00 0
0.000000e+00 0.000000e+00 0
0.000000e+00 0.000000e+00 0
0.000000e+00 0.000000e+00 0
0.000000e+00 0.000000e+00 0
-1.575202e+00 -4.112119e+01 0
8.689911e-01 -7.992113e+01 0
5.748380e+00 -7.826409e+01 0
1.091050e+01 -8.115454e+01 0
1.504669e+01 -8.808107e+01 0
1.779311e+01 -9.481060e+01 0
1.236897e+01 -4.841992e+01 0
0.000000e+00 0.000000e+00 0
0.000000e+00 0.000000e+00 0
0.000000e+00 0.000000e+00 0
0.000000e+00 0.000000e+00 0
0.000000e+00 0.000000e+00 0
0.000000e+00 0.000000e+00 0
0.000000e+00 0.000000e+00 0
0.000000e+00 0.000000e+00 0
0.000000e+00 0.000000e+00 0
0.000000e+00 0.000000e+00 0
0.000000e+00 0.000000e+00 0
0.000000e+00 0.000000e+00 0
0.000000e+00 0.000000e+00 0
-1.983012e+00 -4.225004e+01 0
7.607005e-01 -8.305515e+01 0
4.399319e+00 -8.212318e+01 0
7.386418e+00 -8.390213e+01 0
7.580943e+00 -8.918015e+01 0
7.275797e-01 -4.659608e+01 0
-4.696554e+00 0.000000e+00 0
0.000000e+00 0.000000e+00 0
0.000000e+00 0.000000e+00 0
0.000000e+00 0.000000e+00 0
0.000000e+00 0.000000e+00 0
0.000000e+00 0.000000e+00 0
0.000000e+00 0.000000e+00 0
0.000000e+00 0.000000e+00 0
0.000000e+00 0.000000e+00 0
0.000000e+00 0.000000e+00 0
0.000000e+00 0.000000e+00 0
0.000000e+00 0.000000e+00 0
0.000000e+00 0.000000e+00 0
0.000000e+00 0.000000e+00 0
-2.545617e+00 -4.389324e+01 0
4.512103e-01 -8.635937e+01 0
3.749062e+00 -8.494000e+01 0
6.687037e+00 -8.436027e+01 0
8.708387e+00 -8.142193e+01 0
9.145757e+00 -3.953559e+01 0
9.145757e+00 -5.000000e-05 0
0.000000e+00 0.000000e+00 0
0.000000e+00 0.000000e+00 0
0.000000e+00 0.000000e+00 0
0.000000e+00 0.000000e+00 0
0.000000e+00 0.000000e+00 0
0.000000e+00 0.000000e+00 0
0.000000e+00 0.000000e+00 0
0.000000e+00 0.000000e+00 0
0.000000e+00 0.000000e+00 0
0.000000e+00 0.000000e+00 0
0.000000e+00 0.000000e+00 0
0.000000e+00 0.000000e+00 0
0.000000e+00 0.000000e+00 0
-2.462751e+00 -4.522629e+01 0
2.780146e-01 -8.935424e+01 0
3.492665e+00 -8.840625e+01 0
6.912431e+00 -8.889903e+01 0
1.158779e+01 -9.170764e+01 0
2.068793e+01 -4.708697e+01 0
2.068793e+01 -5.000000e-05 0
0.000000e+00 0.000000e+00 0
0.000000e+00 0.000000e+00 0
0.000000e+00 0.000000e+00 0
0.000000e+00 0.000000e+00 0
0.000000e+00 0.000000e+00 0
0.000000e+00 0.000000e+00 0
0.000000e+00 0.000000e+00 0
0.000000e+00 0.000000e+00 0
0.000000e+00 0.000000e+00 0
0.000000e+00 0.000000e+00 0
0.000000e+00 0.000000e+00 0
0.000000e+00 0.000000e+00 0
0.000000e+00 -5.000000e-05 0
-1.324885e+00 -4.663131e+01 0
3.951260e-01 -9.233639e+01 0
3.050124e+00 -9.162467e+01 0
5.872100e+00 -9.251671e+01 0
9.033128e+00 -9.530179e+01 0
1.126697e+01 -4.870468e+01 0
1.126697e+01 -5.000000e-05 0
0.000000e+00 0.000000e+00 0
0.000000e+00 0.000000e+00 0
0.000000e+00 0.000000e+00 0
0.000000e+00 0.000000e+00 0
0.000000e+00 0.000000e+00 0
0.000000e+00 0.000000e+00 0
0.000000e+00 0.000000e+00 0
0.000000e+00 0.000000e+00 0
0.000000e+00 0.000000e+00 0
0.000000e+00 0.000000e+00 0
0.000000e+00 0.000000e+00 0
0.000000e+00 0.000000e+00 0
0.000000e+00 -5.000000e-05 0
-3.569087e-01 -4.697862e+01 0
5.550036e-01 -9.378163e+01 0
2.452295e+00 -9.392472e+01 0
4.498803e+00 -9.492736e+01 0
6.449459e+00 -9.714338e+01 0
7.347242e+00 -4.933773e+01 0
7.347242e+00 -5.000000e-05 0
0.000000e+00 0.000000e+00 0
0.000000e+00 0.000000e+00 0
0.000000e+00 0.000000e+00 0
0.000000e+00 0.000000e+00 0
0.000000e+00 0.000000e+00 0
0.000000e+00 0.000000e+00 0
0.000000e+00 0.000000e+00 0
0.000000e+00 0.000000e+00 0
0.000000e+00 0.000000e+00 0
0.000000e+00 0.000000e+00 0
0.000000e+00 0.000000e+00 0
0.000000e+00 0.000000e+00 0
0.000000e+00 -5.000000e-05 0
-1.926346e+00 -4.758040e+01 0
1.003497e-01 -9.519715e+01 0
1.711860e+00 -9.559835e+01 0
3.227250e+00 -9.654416e+01 0
4.483664e+00 -9.817181e+01 0
4.892180e+00 -4.960926e+01 0
4.892180e+00 -5.000000e-05 0
0.000000e+00 0.000000e+00 0
0.000000e+00 0.000000e+00 0
0.000000e+00 0.000000e+00 0
0.000000e+00 0.000000e+00 0
0.000000e+00 0.000000e+00 0
0.000000e+00 0.000000e+00 0
0.000000e+00 0.000000e+00 0
0.000000e+00 0.000000e+00 0
0.000000e+00 0.000000e+00 0
0.000000e+00 0.000000e+00 0
0.000000e+00 0.000000e+00 0
0.000000e+00 0.000000e+00 0
0.000000e+00 -5.000000e-05 0
-2.277622e+00 -4.899618e+01 0
-3.116680e-01 -9.742291e+01 0
1.077950e+00 -9.707530e+01 0
2.220863e+00 -9.772016e+01 0
3.075743e+00 -9.882092e+01 0
3.323870e+00 -4.974934e+01 0
3.323870e+00 -5.000000e-05 0
0.000000e+00 0.000000e+00 0
0.000000e+00 0.000000e+00 0
0.000000e+00 0.000000e+00 0
0.000000e+00 0.000000e+00 0
0.000000e+00 0.000000e+00 0
0.000000e+00 0.000000e+00 0
0.000000e+00 0.000000e+00 0
0.000000e+00 0.000000e+00 0
0.000000e+00 0.000000e+00 0
0.000000e+00 0.000000e+00 0
0.000000e+00 0.000000e+00 0
0.000000e+00 0.000000e+00 0
0.000000e+00 -5.000000e-05 0
-8.479312e-01 -4.952642e+01 0
-2.408198e-01 -9.854330e+01 0
7.056928e-01 -9.815007e+01 0
1.508021e+00 -9.855709e+01 0
2.086813e+00 -9.928317e+01 0
2.242278e+00 -4.985927e+01 0
2.242278e+00 -5.000000e-05 0
0.000000e+00 0.000000e+00 0
0.000000e+00 0.000000e+00 0
0.000000e+00 0.000000e+00 0
0.000000e+00 0.000000e+00 0
0.000000e+00 0.000000e+00 0
0.000000e+00 0.000000e+00 0
0.000000e+00 0.000000e+00 0
0.000000e+00 0.000000e+00 0
0.000000e+00 0.000000e+00 0
0.000000e+00 0.000000e+00 0
0.000000e+00 0.000000e+00 0
0.000000e+00 0.000000e+00 0
0.000000e+00 -5.000000e-05 0
-3.215183e-01 -4.959510e+01 0
-9.359865e-02 -9.897551e+01 0
4.899331e-01 -9.883739e+01 0
1.022603e+00 -9.911175e+01 0
1.408646e+00 -9.956074e+01 0
1.509434e+00 -4.990598e+01 0
1.509434e+00 -5.000000e-05 0
0.000000e+00 0.000000e+00 0
0.000000e+00 0.000000e+00 0
0.000000e+00 0.000000e+00 0
0.000000e+00 0.000000e+00 0
0.000000e+00 0.000000e+00 0
0.000000e+00 0.000000e+00 0
0.000000e+00 0.000000e+00 0
0.000000e+00 0.000000e+00 0
0.000000e+00 0.000000e+00 0
0.000000e+00 0.000000e+00 0
0.000000e+00 0.000000e+00 0
0.000000e+00 0.000000e+00 0
0.000000e+00 -5.000000e-05 0
-4.027564e-01 -4.975090e+01 0
-5.378649e-02 -9.935574e+01 0
3.329366e-01 -9.927473e+01 0
6.862520e-01 -9.948276e+01 0
9.385200e-01 -9.977369e+01 0
9.816506e-01 -4.996082e+01 0
9.816506e-01 -5.000000e-05 0
0.000000e+00 0.000000e+00 0
0.000000e+00 0.000000e+00 0
0.000000e+00 0.000000e+00 0
0.000000e+00 0.000000e+00 0
0.000000e+00 0.000000e+00 0
0.000000e+00 0.000000e+00 0
0.000000e+00 0.000000e+00 0
0.000000e+00 0.000000e+00 0
0.000000e+00 0.000000e+00 0
0.000000e+00 0.000000e+00 0
0.000000e+00 0.000000e+00 0
0.000000e+00 0.000000e+00 0
0.000000e+00 -5.000000e-05 0
-2.209842e-01 -4.993610e+01 0
-6.285181e-02 -9.970617e+01 0
2.151555e-01 -9.958304e+01 0
4.526061e-01 -9.972192e+01 0
6.171195e-01 -9.985838e+01 0
6.347638e-01 -4.994944e+01 0
3.569077e-01 -5.000000e-05 0
0.000000e+00 0.000000e+00 0
0.000000e+00 0.000000e+00 0
0.000000e+00 0.000000e+00 0
0.000000e+00 0.000000e+00 0
0.000000e+00 0.000000e+00 0
0.000000e+00 0.000000e+00 0
0.000000e+00 0.000000e+00 0
0.000000e+00 0.000000e+00 0
0.000000e+00 0.000000e+00 0
0.000000e+00 0.000000e+00 0
0.000000e+00 0.000000e+00 0
0.000000e+00 0.000000e+00 0
0.000000e+00 -5.000000e-05 0
0.000000e+00 -4.990753e+01 0
-2.971647e-02 -9.979248e+01 0
1.424713e-01 -9.979409e+01 0
2.930665e-01 -9.988777e+01 0
3.953250e-01 -9.995723e+01 0
4.230740e-01 -4.997855e+01 0
0.000000e+00 0.000000e+00 0
0.000000e+00 0.000000e+00 0
0.000000e+00 0.000000e+00 0
0.000000e+00 0.000000e+00 0
0.000000e+00 0.000000e+00 0
0.000000e+00 0.000000e+00 0
0.000000e+00 0.000000e+00 0
0.000000e+00 0.000000e+00 0
0.000000e+00 0.000000e+00 0
0.000000e+00 0.000000e+00 0
0.000000e+00 0.000000e+00 0
0.000000e+00 0.000000e+00 0
0.000000e+00 0.000000e+00 0
0.000000e+00 0.000000e+00 0
0.000000e+00 -5.000000e+01 0
0.000000e+00 -9.994460e+01 0
9.516422e-02 -9.990926e+01 0
1.826309e-01 -9.997669e+01 0
2.328806e-01 -9.998937e+01 0
2.373010e-01 -4.997735e+01 0
0.000000e+00 0.000000e+00 0
0.000000e+00 0.000000e+00 0
0.000000e+00 0.000000e+00 0
0.000000e+00 0.000000e+00 0
0.000000e+00 0.000000e+00 0
0.000000e+00 0.000000e+00 0
0.000000e+00 0.000000e+00 0
0.000000e+00 0.000000e+00 0
0.000000e+00 0.000000e+00 0
0.000000e+00 0.000000e+00 0
0.000000e+00 0.000000e+00 0
0.000000e+00 0.000000e+00 0
0.000000e+00 0.000000e+00 0
0.000000e+00 0.000000e+00 0
0.000000e+00 -5.000000e+01 0
0.000000e+00 -9.998252e+01 0
5.926910e-02 -9.997974e+01 0
1.099997e-01 -1.000265e+02 0
1.355478e-01 -1.000123e+02 0
1.464840e-01 -4.998300e+01 0
0.000000e+00 0.000000e+00 0
0.000000e+00 0.000000e+00 0
0.000000e+00 0.000000e+00 0
0.000000e+00 0.000000e+00 0
0.000000e+00 0.000000e+00 0
0.000000e+00 0.000000e+00 0
0.000000e+00 0.000000e+00 0
0.000000e+00 0.000000e+00 0
0.000000e+00 0.000000e+00 0
0.000000e+00 0.000000e+00 0
0.000000e+00 0.000000e+00 0
0.000000e+00 0.000000e+00 0
0.000000e+00 0.000000e+00 0
0.000000e+00 0.000000e+00 0
0.000000e+00 -5.000000e+01 0
0.000000e+00 -1.000054e+02 0
3.475824e-02 -1.000211e+02 0
6.295626e-02 -1.000535e+02 0
7.460006e-02 -1.000261e+02 0
8.579636e-02 -4.998836e+01 0
0.000000e+00 0.000000e+00 0
0.000000e+00 0.000000e+00 0
0.000000e+00 0.000000e+00 0
0.000000e+00 0.000000e+00 0
0.000000e+00 0.000000e+00 0
0.000000e+00 0.000000e+00 0
0.000000e+00 0.000000e+00 0
0.000000e+00 0.000000e+00 0
0.000000e+00 0.000000e+00 0
0.000000e+00 0.000000e+00 0
0.000000e+00 0.000000e+00 0
0.000000e+00 0.000000e+00 0
0.000000e+00 0.000000e+00 0
0.000000e+00 0.000000e+00 0
0.000000e+00 -5.000000e+01 0
0.000000e+00 -1.000182e+02 0
1.863561e-02 -1.000438e+02 0
3.273986e-02 -1.000667e+02 0
3.612036e-02 -1.000353e+02 0
4.623684e-02 -4.999428e+01 0
0.000000e+00 0.000000e+00 0
0.000000e+00 0.000000e+00 0
0.000000e+00 0.000000e+00 0
0.000000e+00 0.000000e+00 0
0.000000e+00 0.000000e+00 0
0.000000e+00 0.000000e+00 0
0.000000e+00 0.000000e+00 0
0.000000e+00 0.000000e+00 0
0.000000e+00 0.000000e+00 0
0.000000e+00 0.000000e+00 0
0.000000e+00 0.000000e+00 0
0.000000e+00 0.000000e+00 0
0.000000e+00 0.000000e+00 0
0.000000e+00 0.000000e+00 0
0.000000e+00 -5.000000e+01 0
0.000000e+00 -1.000246e+02 0
8.218982e-03 -1.000546e+02 0
1.342899e-02 -1.000712e+02 0
1.173029e-02 -1.000397e+02 0
2.005722e-02 -4.999856e+01 0
0.000000e+00 0.000000e+00 0
0.000000e+00 0.000000e+00 0
0.000000e+00 0.000000e+00 0
0.000000e+00 0.000000e+00 0
0.000000e+00 0.000000e+00 0
0.000000e+00 0.000000e+00 0
0.000000e+00 0.000000e+00 0
0.000000e+00 0.000000e+00 0
0.000000e+00 0.000000e+00 0
0.000000e+00 0.000000e+00 0
0.000000e+00 0.000000e+00 0
0.000000e+00 0.000000e+00 0
0.000000e+00 0.000000e+00 0
0.000000e+00 0.000000e+00 0
0.000000e+00 -5.000000e+01 0
0.000000e+00 -1.000268e+02 0
1.561330e-03 -1.000577e+02 0
1.147481e-03 -1.000702e+02 0
-3.720875e-03 -1.000420e+02 0
3.849082e-03 -5.000267e+01 0
0.000000e+00 0.000000e+00 0
0.000000e+00 0.000000e+00 0
0.000000e+00 0.000000e+00 0
0.000000e+00 0.000000e+00 0
0.000000e+00 0.000000e+00 0
0.000000e+00 0.000000e+00 0
0.000000e+00 0.000000e+00 0
0.000000e+00 0.000000e+00 0
0.000000e+00 0.000000e+00 0
0.000000e+00 0.000000e+00 0
0.000000e+00 0.000000e+00 0
0.000000e+00 0.000000e+00 0
0.000000e+00 0.000000e+00 0
0.000000e+00 0.000000e+00 0
0.000000e+00 -5.000000e+01 0
0.000000e+00 -1.000263e+02 0
-2.645799e-03 -1.000559e+02 0
-6.598941e-03 -1.000658e+02 0
-1.344874e-02 -1.000425e+02 0
-7.170546e-03 -5.000619e+01 0
0.000000e+00 0.000000e+00 0
0.000000e+00 0.000000e+00 0
0.000000e+00 0.000000e+00 0
0.000000e+00 0.000000e+00 0
0.000000e+00 0.000000e+00 0
0.000000e+00 0.000000e+00 0
0.000000e+00 0.000000e+00 0
0.000000e+00 0.000000e+00 0
0.000000e+00 0.000000e+00 0
0.000000e+00 0.000000e+00 0
0.000000e+00 0.000000e+00 0
0.000000e+00 0.000000e+00 0
0.000000e+00 0.000000e+00 0
0.000000e+00 0.000000e+00 0
0.000000e+00 -5.000000e+01 0
0.000000e+00 -1.000242e+02 0
-5.249014e-03 -1.000511e+02 0
-1.139299e-02 -1.000593e+02 0
-1.946600e-02 -1.000414e+02 0
-1.461215e-02 -5.000900e+01 0
0.000000e+00 0.000000e+00 0
0.000000e+00 0.000000e+00 0
0.000000e+00 0.000000e+00 0
0.000000e+00 0.000000e+00 0
0.000000e+00 0.000000e+00 0
0.000000e+00 0.000000e+00 0
0.000000e+00 0.000000e+00 0
0.000000e+00 0.000000e+00 0
0.000000e+00 0.000000e+00 0
0.000000e+00 0.000000e+00 0
0.000000e+00 0.000000e+00 0
0.000000e+00 0.000000e+00 0
0.000000e+00 0.000000e+00 0
0.000000e+00 0.000000e+00 0
0.000000e+00 -5.000000e+01 0
0.000000e+00 -1.000211e+02 0
-6.779563e-03 -1.000445e+02 0
-1.421955e-02 -1.000515e+02 0
-2.301657e-02 -1.000392e+02 0
-1.974779e-02 -5.001108e+01 0
0.000000e+00 0.000000e+00 0
0.000000e+00 0.000000e+00 0
0.000000e+00 0.000000e+00 0
0.000000e+00 0.000000e+00 0
0.000000e+00 0.000000e+00 0
0.000000e+00 0.000000e+00 0
0.000000e+00 0.000000e+00 0
0.000000e+00 0.000000e+00 0
0.000000e+00 0.000000e+00 0
0.000000e+00 0.000000e+00 0
0.000000e+00 0.000000e+00 0
0.000000e+00 0.000000e+00 0
0.000000e+00 0.000000e+00 0
0.000000e+00 0.000000e+00 0
0.000000e+00 -5.000000e+01 0
0.000000e+00 -1.000174e+02 0
-7.555094e-03 -1.000368e+02 0
-1.566616e-02 -1.000430e+02 0
-2.483853e-02 -1.000359e+02 0
-2.287178e-02 -5.001229e+01 0
0.000000e+00 0.000000e+00 0
0.000000e+00 0.000000e+00 0
0.000000e+00 0.000000e+00 0
0.000000e+00 0.000000e+00 0
0.000000e+00 0.000000e+00 0
0.000000e+00 0.000000e+00 0
0.000000e+00 0.000000e+00 0
0.000000e+00 0.000000e+00 0
0.000000e+00 0.000000e+00 0
0.000000e+00 0.000000e+00 0
0.000000e+00 0.000000e+00 0
0.000000e+00 0.000000e+00 0
0.000000e+00 0.000000e+00 0
0.000000e+00 0.000000e+00 0
0.000000e+00 -5.000000e+01 0
0.000000e+00 -1.000135e+02 0
-7.744490e-03 -1.000287e+02 0
-1.604454e-02 -1.000341e+02 0
-2.532035e-02 -1.000319e+02 0
-2.302660e-02 -5.001306e+01 0
0.000000e+00 0.000000e+00 0
0.000000e+00 0.000000e+00 0
0.000000e+00 0.000000e+00 0
0.000000e+00 0.000000e+00 0
0.000000e+00 0.000000e+00 0
0.000000e+00 0.000000e+00 0
0.000000e+00 0.000000e+00 0
0.000000e+00 0.000000e+00 0
0.000000e+00 0.000000e+00 0
0.000000e+00 0.000000e+00 0
0.000000e+00 0.000000e+00 0
0.000000e+00 0.000000e+00 0
0.000000e+00 0.000000e+00 0
0.000000e+00 0.000000e+00 0
0.000000e+00 -5.000000e+01 0
0.000000e+00 -1.000096e+02 0
-7.406677e-03 -1.000206e+02 0
-1.545860e-02 -1.000253e+02 0
-2.458135e-02 -1.000288e+02 0
-2.074231e-02 -5.001460e+01 0
0.000000e+00 0.000000e+00 0
0.000000e+00 0.000000e+00 0
0.000000e+00 0.000000e+00 0
0.000000e+00 0.000000e+00 0
0.000000e+00 0.000000e+00 0
0.000000e+00 0.000000e+00 0
0.000000e+00 0.000000e+00 0
0.000000e+00 0.000000e+00 0
0.000000e+00 0.000000e+00 0
0.000000e+00 0.000000e+00 0
0.000000e+00 0.000000e+00 0
0.000000e+00 0.000000e+00 0
0.000000e+00 0.000000e+00 0
0.000000e+00 0.000000e+00 0
0.000000e+00 -5.000000e+01 0
0.000000e+00 -1.000060e+02 0
-6.514803e-03 -1.000131e+02 0
-1.383472e-02 -1.000168e+02 0
-2.248703e-02 -1.000266e+02 0
-2.123224e-02 -5.001693e+01 0
0.000000e+00 0.000000e+00 0
0.000000e+00 0.000000e+00 0
0.000000e+00 0.000000e+00 0
0.000000e+00 0.000000e+00 0
0.000000e+00 0.000000e+00 0
0.000000e+00 0.000000e+00 0
0.000000e+00 0.000000e+00 0
0.000000e+00 0.000000e+00 0
0.000000e+00 0.000000e+00 0
0.000000e+00 0.000000e+00 0
0.000000e+00 0.000000e+00 0
0.000000e+00 0.000000e+00 0
0.000000e+00 0.000000e+00 0
0.000000e+00 0.000000e+00 0
0.000000e+00 -5.000000e+01 0
0.000000e+00 -1.000030e+02 0
-4.984508e-03 -1.000066e+02 0
-1.093172e-02 -1.000092e+02 0
-1.858125e-02 -1.000214e+02 0
-3.537977e-02 -5.001587e+01 0
0.000000e+00 0.000000e+00 0
0.000000e+00 0.000000e+00 0
0.000000e+00 0.000000e+00 0
0.000000e+00 0.000000e+00 0
0.000000e+00 0.000000e+00 0
0.000000e+00 0.000000e+00 0
0.000000e+00 0.000000e+00 0
0.000000e+00 0.000000e+00 0
0.000000e+00 0.000000e+00 0
0.000000e+00 0.000000e+00 0
0.000000e+00 0.000000e+00 0
0.000000e+00 0.000000e+00 0
0.000000e+00 0.000000e+00 0
0.000000e+00 0.000000e+00 0
0.000000e+00 -5.000000e+01 0
0.000000e+00 -1.000009e+02 0
-2.750710e-03 -1.000020e+02 0
-6.381878e-03 -1.000031e+02 0
-1.184500e-02 -1.000020e+02 0
-2.759329e-02 -5.000000e+01 0
0.000000e+00 0.000000e+00 0
0.000000e+00 0.000000e+00 0
0.000000e+00 0.000000e+00 0
0.000000e+00 0.000000e+00 0
0.000000e+00 0.000000e+00 0
0.000000e+00 0.000000e+00 0
0.000000e+00 0.000000e+00 0
0.000000e+00 0.000000e+00 0
0.000000e+00 0.000000e+00 0
0.000000e+00 0.000000e+00 0
0.000000e+00 0.000000e+00 0
0.000000e+00 0.000000e+00 0
0.000000e+00 0.000000e+00 0
0.000000e+00 0.000000e+00 0
0.000000e+00 -5.000000e+01 0
0.000000e+00 -1.000000e+02 0
-6.069596e-18 -1.000000e+02 0
-1.517399e-17 -1.000000e+02 0
-3.144148e-17 -1.000000e+02 0
-3.156190e-17 -5.000000e+01 0
0.000000e+00 0.000000e+00 0
0.000000e+00 0.000000e+00 0
0.000000e+00 0.000000e+00 0
0.000000e+00 0.000000e+00 0
0.000000e+00 0.000000e+00 0
0.000000e+00 0.000000e+00 0
0.000000e+00 0.000000e+00 0
</DataArray>
<DataArray Name="Type and Neighbourhood" type="Float64" format="ascii" NumberOfComponents="3">
1.000000e+01 0.000000e+00 0
1.000000e+01 0.000000e+00 0
1.100000e+01 2.000000e+00 0
0.000000e+00 0.000000e+00 0
1.100000e+01 1.000000e+00 0
1.100000e+01 1.000000e+00 0
0.000000e+00 0.000000e+00 0
0.000000e+00 0.000000e+00 0
0.000000e+00 0.000000e+00 0
0.000000e+00 0.000000e+00 0
0.000000e+00 0.000000e+00 0
0.000000e+00 0.000000e+00 0
0.000000e+00 0.000000e+00 0
0.000000e+00 0.000000e+00 0
0.000000e+00 0.000000e+00 0