<?xml version="1.0"?>
<VTKFile type="StructuredGrid">
<StructuredGrid WholeExtent="0 19 0 33 0 0 ">
<Piece Extent="0 19 0 33 0 0 ">
<Points>
<DataArray type="Float64" format="ascii" NumberOfComponents="3">
0.000000e+00 0.000000e+00 0.000000e+00
1.052632e-01 0.000000e+00 0.000000e+00
2.105263e-01 0.000000e+00 0.000000e+00
3.157895e-01 0.000000e+00 0.000000e+00
4.210526e-01 0.000000e+00 0.000000e+00
5.263158e-01 0.000000e+00 0.000000e+00
6.315789e-01 0.000000e+00 0.000000e+00
7.368421e-01 0.000000e+00 0.000000e+00
8.421053e-01 0.000000e+00 0.000000e+00
9.473684e-01 0.000000e+00 0.000000e+00
1.052632e+00 0.000000e+00 0.000000e+00
1.157895e+00 0.000000e+00 0.000000e+00
1.263158e+00 0.000000e+00 0.000000e+00
1.368421e+00 0.000000e+00 0.000000e+00
1.473684e+00 0.000000e+00 0.000000e+00
1.578947e+00 0.000000e+00 0.000000e+00
1.684211e+00 0.000000e+00 0.000000e+00
1.789474e+00 0.000000e+00 0.000000e+00
1.894737e+00 0.000000e+00 0.000000e+00
2.000000e+00 0.000000e+00 0.000000e+00
0.000000e+00 1.060606e-01 0.000000e+00
1.052632e-01 1.060606e-01 0.000000e+00
2.105263e-01 1.060606e-01 0.000000e+00
3.157895e-01 1.060606e-01 0.000000e+00
4.210526e-01 1.060606e-01 0.000000e+00
5.263158e-01 1.060606e-01 0.000000e+00
6.315789e-01 1.060606e-01 0.000000e+00
7.368421e-01 1.060606e-01 0.000000e+00
8.421053e-01 1.060606e-01 0.000000e+00
9.473684e-01 1.060606e-01 0.000000e+00
1.052632e+00 1.060606e-01 0.000000e+00
1.157895e+00 1.060606e-01 0.000000e+00
1.263158e+00 1.060606e-01 0.000000e+00
1.368421e+00 1.060606e-01 0.000000e+00
1.473684e+00 1.060606e-01 0.000000e+00
1.578947e+00 1.060606e-01 0.000000e+00
1.684211e+00 1.060606e-01 0.000000e+00
1.789474e+00 1.060606e-01 0.000000e+00
1.894737e+00 1.060606e-01 0.000000e+00
2.000000e+00 1.060606e-01 0.000000e+00
0.000000e+00 2.121212e-01 0.000000e+00
1.052632e-01 2.121212e-01 0.000000e+00
2.105263e-01 2.121212e-01 0.000000e+00
3.157895e-01 2.121212e-01 0.000000e+00
4.210526e-01 2.121212e-01 0.000000e+00
5.263158e-01 2.121212e-01 0.000000e+00
6.315789e-01 2.121212e-01 0.000000e+00
7.368421e-01 2.121212e-01 0.000000e+00
8.421053e-01 2.121212e-01 0.000000e+00
9.473684e-01 2.121212e-01 0.000000e+00
1.052632e+00 2.121212e-01 0.000000e+00
1.157895e+00 2.121212e-01 0.000000e+00
1.263158e+00 2.121212e-01 0.000000e+00
1.368421e+00 2.121212e-01 0.000000e+00
1.473684e+00 2.121212e-01 0.000000e+00
1.578947e+00 2.121212e-01 0.000000e+00
1.684211e+00 2.121212e-01 0.000000e+00
1.789474e+00 2.121212e-01 0.000000e+00
1.894737e+00 2.121212e-01 0.000000e+00
2.000000e+00 2.121212e-01 0.000000e+00
0.000000e+00 3.181818e-01 0.000000e+00
1.052632e-01 3.181818e-01 0.000000e+00
2.105263e-01 3.181818e-01 0.000000e+00
3.157895e-01 3.181818e-01 0.000000e+00
4.210526e-01 3.181818e-01 0.000000e+00
5.263158e-01 3.181818e-01 0.000000e+00
6.315789e-01 3.181818e-01 0.000000e+00
7.368421e-01 3.181818e-01 0.000000e+00
8.421053e-01 3.181818e-01 0.000000e+00
9.473684e-01 3.181818e-01 0.000000e+00
1.052632e+00 3.181818e-01 0.000000e+00
1.157895e+00 3.181818e-01 0.000000e+00
1.263158e+00 3.181818e-01 0.000000e+00
1.368421e+00 3.181818e-01 0.000000e+00
1.473684e+00 3.181818e-01 0.000000e+00
1.578947e+00 3.181818e-01 0.000000e+00
1.684211e+00 3.181818e-01 0.000000e+00
1.789474e+00 3.181818e-01 0.000000e+00
1.894737e+00 3.181818e-01 0.000000e+00
2.000000e+00 3.181818e-01 0.000000e+00
0.000000e+00 4.242424e-01 0.000000e+00
1.052632e-01 4.242424e-01 0.000000e+00
2.105263e-01 4.242424e-01 0.000000e+00
3.157895e-01 4.242424e-01 0.000000e+00
4.210526e-01 4.242424e-01 0.000000e+00
5.263158e-01 4.242424e-01 0.000000e+00
6.315789e-01 4.242424e-01 0.000000e+00
7.368421e-01 4.242424e-01 0.000000e+00
8.421053e-01 4.242424e-01 0.000000e+00
9.473684e-01 4.242424e-01 0.000000e+00
1.052632e+00 4.242424e-01 0.000000e+00
1.157895e+00 4.242424e-01 0.000000e+00
1.263158e+00 4.242424e-01 0.000000e+00
1.368421e+00 4.242424e-01 0.000000e+00
1.473684e+00 4.242424e-01 0.000000e+00
1.578947e+00 4.242424e-01 0.000000e+00
1.684211e+00 4.242424e-01 0.000000e+00
1.789474e+00 4.242424e-01 0.000000e+00
1.894737e+00 4.242424e-01 0.000000e+00
2.000000e+00 4.242424e-01 0.000000e+00
0.000000e+00 5.303030e-01 0.000000e+00
1.052632e-01 5.303030e-01 0.000000e+00
2.105263e-01 5.303030e-01 0.000000e+00
3.157895e-01 5.303030e-01 0.000000e+00
4.210526e-01 5.303030e-01 0.000000e+00
5.263158e-01 5.303030e-01 0.000000e+00
6.315789e-01 5.303030e-01 0.000000e+00
7.368421e-01 5.303030e-01 0.000000e+00
8.421053e-01 5.303030e-01 0.000000e+00
9.473684e-01 5.303030e-01 0.000000e+00
1.052632e+00 5.303030e-01 0.000000e+00
1.157895e+00 5.303030e-01 0.000000e+00
1.263158e+00 5.303030e-01 0.000000e+00
1.368421e+00 5.303030e-01 0.000000e+00
1.473684e+00 5.303030e-01 0.000000e+00
1.578947e+00 5.303030e-01 0.000000e+00
1.684211e+00 5.303030e-01 0.000000e+00
1.789474e+00 5.303030e-01 0.000000e+00
1.894737e+00 5.303030e-01 0.000000e+00
2.000000e+00 5.303030e-01 0.000000e+00
0.000000e+00 6.363636e-01 0.000000e+00
1.052632e-01 6.363636e-01 0.000000e+00
2.105263e-01 6.363636e-01 0.000000e+00
3.157895e-01 6.363636e-01 0.000000e+00
4.210526e-01 6.363636e-01 0.000000e+00
5.263158e-01 6.363636e-01 0.000000e+00
6.315789e-01 6.363636e-01 0.000000e+00
7.368421e-01 6.363636e-01 0.000000e+00
8.421053e-01 6.363636e-01 0.000000e+00
9.473684e-01 6.363636e-01 0.000000e+00
1.052632e+00 6.363636e-01 0.000000e+00
1.157895e+00 6.363636e-01 0.000000e+00
1.263158e+00 6.363636e-01 0.000000e+00
1.368421e+00 6.363636e-01 0.000000e+00
1.473684e+00 6.363636e-01 0.000000e+00
1.578947e+00 6.363636e-01 0.000000e+00
1.684211e+00 6.363636e-01 0.000000e+00
1.789474e+00 6.363636e-01 0.000000e+00
1.894737e+00 6.363636e-01 0.000000e+00
2.000000e+00 6.363636e-01 0.000000e+00
0.000000e+00 7.424242e-01 0.000000e+00
1.052632e-01 7.424242e-01 0.000000e+00
2.105263e-01 7.424242e-01 0.000000e+00
3.157895e-01 7.424242e-01 0.000000e+00
4.210526e-01 7.424242e-01 0.000000e+00
5.263158e-01 7.424242e-01 0.000000e+00
6.315789e-01 7.424242e-01 0.000000e+00
7.368421e-01 7.424242e-01 0.000000e+00
8.421053e-01 7.424242e-01 0.000000e+00
9.473684e-01 7.424242e-01 0.000000e+00
1.052632e+00 7.424242e-01 0.000000e+00
1.157895e+00 7.424242e-01 0.000000e+00
1.263158e+00 7.424242e-01 0.000000e+00
1.368421e+00 7.424242e-01 0.000000e+00
1.473684e+00 7.424242e-01 0.000000e+00
1.578947e+00 7.424242e-01 0.000000e+00
1.684211e+00 7.424242e-01 0.000000e+00
1.789474e+00 7.424242e-01 0.000000e+00
1.894737e+00 7.424242e-01 0.000000e+00
2.000000e+00 7.424242e-01 0.000000e+00
0.000000e+00 8.484848e-01 0.000000e+00
1.052632e-01 8.484848e-01 0.000000e+00
2.105263e-01 8.484848e-01 0.000000e+00
3.157895e-01 8.484848e-01 0.000000e+00
4.210526e-01 8.484848e-01 0.000000e+00
5.263158e-01 8.484848e-01 0.000000e+00
6.315789e-01 8.484848e-01 0.000000e+00
7.368421e-01 8.484848e-01 0.000000e+00
8.421053e-01 8.484848e-01 0.000000e+00
9.473684e-01 8.484848e-01 0.000000e+00
1.052632e+00 8.484848e-01 0.000000e+00
1.157895e+00 8.484848e-01 0.000000e+00
1.263158e+00 8.484848e-01 0.000000e+00
1.368421e+00 8.484848e-01 0.000000e+00
1.473684e+00 8.484848e-01 0.000000e+00
1.578947e+00 8.484848e-01 0.000000e+00
1.684211e+00 8.484848e-01 0.000000e+00
1.789474e+00 8.484848e-01 0.000000e+00
1.894737e+00 8.484848e-01 0.000000e+00
2.000000e+00 8.484848e-01 0.000000e+00
0.000000e+00 9.545455e-01 0.000000e+00
1.052632e-01 9.545455e-01 0.000000e+00
2.105263e-01 9.545455e-01 0.000000e+00
3.157895e-01 9.545455e-01 0.000000e+00
4.210526e-01 9.545455e-01 0.000000e+00
5.263158e-01 9.545455e-01 0.000000e+00
6.315789e-01 9.545455e-01 0.000000e+00
7.368421e-01 9.545455e-01 0.000000e+00
8.421053e-01 9.545455e-01 0.000000e+00
9.473684e-01 9.545455e-01 0.000000e+00
1.052632e+00 9.545455e-01 0.000000e+00
1.157895e+00 9.545455e-01 0.000000e+00
1.263158e+00 9.545455e-01 0.000000e+00
1.368421e+00 9.545455e-01 0.000000e+00
1.473684e+00 9.545455e-01 0.000000e+00
1.578947e+00 9.545455e-01 0.000000e+00
1.684211e+00 9.545455e-01 0.000000e+00
1.789474e+00 9.545455e-01 0.000000e+00
1.894737e+00 9.545455e-01 0.000000e+00
2.000000e+00 9.545455e-01 0.000000e+00
0.000000e+00 1.060606e+00 0.000000e+00
1.052632e-01 1.060606e+00 0.000000e+00
2.105263e-01 1.060606e+00 0.000000e+00
3.157895e-01 1.060606e+00 0.000000e+00
4.210526e-01 1.060606e+00 0.000000e+00
5.263158e-01 1.060606e+00 0.000000e+00
6.315789e-01 1.060606e+00 0.000000e+00
7.368421e-01 1.060606e+00 0.000000e+00
8.421053e-01 1.060606e+00 0.000000e+00
9.473684e-01 1.060606e+00 0.000000e+00
1.052632e+00 1.060606e+00 0.000000e+00
1.157895e+00 1.060606e+00 0.000000e+00
1.263158e+00 1.060606e+00 0.000000e+00
1.368421e+00 1.060606e+00 0.000000e+00
1.473684e+00 1.060606e+00 0.000000e+00
1.578947e+00 1.060606e+00 0.000000e+00
1.684211e+00 1.060606e+00 0.000000e+00
1.789474e+00 1.060606e+00 0.000000e+00
1.894737e+00 1.060606e+00 0.000000e+00
2.000000e+00 1.060606e+00 0.000000e+00
0.000000e+00 1.166667e+00 0.000000e+00
1.052632e-01 1.166667e+00 0.000000e+00
2.105263e-01 1.166667e+00 0.000000e+00
3.157895e-01 1.166667e+00 0.000000e+00
4.210526e-01 1.166667e+00 0.000000e+00
5.263158e-01 1.166667e+00 0.000000e+00
6.315789e-01 1.166667e+00 0.000000e+00
7.368421e-01 1.166667e+00 0.000000e+00
8.421053e-01 1.166667e+00 0.000000e+00
9.473684e-01 1.166667e+00 0.000000e+00
1.052632e+00 1.166667e+00 0.000000e+00
1.157895e+00 1.166667e+00 0.000000e+00
1.263158e+00 1.166667e+00 0.000000e+00
1.368421e+00 1.166667e+00 0.000000e+00
1.473684e+00 1.166667e+00 0.000000e+00
1.578947e+00 1.166667e+00 0.000000e+00
1.684211e+00 1.166667e+00 0.000000e+00
1.789474e+00 1.166667e+00 0.000000e+00
1.894737e+00 1.166667e+00 0.000000e+00
2.000000e+00 1.166667e+00 0.000000e+00
0.000000e+00 1.272727e+00 0.000000e+00
1.052632e-01 1.272727e+00 0.000000e+00
2.105263e-01 1.272727e+00 0.000000e+00
3.157895e-01 1.272727e+00 0.000000e+00
4.210526e-01 1.272727e+00 0.000000e+00
5.263158e-01 1.272727e+00 0.000000e+00
6.315789e-01 1.272727e+00 0.000000e+00
7.368421e-01 1.272727e+00 0.000000e+00
8.421053e-01 1.272727e+00 0.000000e+00
9.473684e-01 1.272727e+00 0.000000e+00
1.052632e+00 1.272727e+00 0.000000e+00
[...]
<PointData>
<DataArray Name="Velocity" type="Float64" format="ascii" NumberOfComponents="3">
0.000000e+00 0.000000e+00 0
0.000000e+00 0.000000e+00 0
0.000000e+00 0.000000e+00 0
0.000000e+00 0.000000e+00 0
0.000000e+00 0.000000e+00 0
0.000000e+00 0.000000e+00 0
0.000000e+00 0.000000e+00 0
0.000000e+00 0.000000e+00 0
0.000000e+00 0.000000e+00 0
0.000000e+00 0.000000e+00 0
0.000000e+00 0.000000e+00 0
-2.591556e-16 0.000000e+00 0
0.000000e+00 0.000000e+00 0
0.000000e+00 0.000000e+00 0
0.000000e+00 0.000000e+00 0
1.470552e-16 0.000000e+00 0
0.000000e+00 0.000000e+00 0
0.000000e+00 0.000000e+00 0
0.000000e+00 0.000000e+00 0
0.000000e+00 0.000000e+00 0
0.000000e+00 0.000000e+00 0
-6.082265e+01 7.080625e+01 0
-9.659317e+01 3.801433e+01 0
-1.085832e+02 1.688318e+01 0
-8.703011e+01 2.631010e+00 0
-8.487516e+01 -5.550839e+01 0
-3.469397e+01 -6.480733e+01 0
-3.607914e+01 -2.282285e+01 0
-1.848909e+01 -1.701595e+01 0
-6.283981e+00 -1.223837e+01 0
6.275008e+00 -1.165650e+01 0
1.711572e+01 -1.102037e+01 0
2.937549e+01 -1.068511e+01 0
3.887535e+01 -7.305999e+00 0
4.396489e+01 -2.610262e+00 0
4.399893e+01 2.361971e+00 0
3.897242e+01 7.040362e+00 0
2.939894e+01 1.109005e+01 0
1.609061e+01 1.444230e+01 0
0.000000e+00 -3.480549e-14 0
0.000000e+00 0.000000e+00 0
-1.963093e+01 9.732493e+01 0
-2.802781e+01 4.812239e+01 0
-2.631929e+01 1.208089e+01 0
0.000000e+00 0.000000e+00 0
0.000000e+00 -5.181365e+01 0
-1.836391e+01 -5.060632e+01 0
-3.321455e+01 -1.651598e+01 0
-1.930454e+01 -3.002088e+01 0
-5.335282e+00 -2.495170e+01 0
7.051650e+00 -2.357697e+01 0
1.919102e+01 -2.327549e+01 0
3.239321e+01 -2.192447e+01 0
4.201753e+01 -1.469993e+01 0
4.723641e+01 -5.162390e+00 0
4.723502e+01 5.030295e+00 0
4.161521e+01 1.471059e+01 0
3.114463e+01 2.305515e+01 0
1.684298e+01 2.962166e+01 0
0.000000e+00 -6.712488e-14 0
0.000000e+00 0.000000e+00 0
-3.499796e+00 9.904640e+01 0
-1.864619e+00 3.439393e+01 0
0.000000e+00 3.161513e-15 0
0.000000e+00 0.000000e+00 0
0.000000e+00 -5.181365e+01 0
-2.950048e+01 -4.854606e+01 0
-3.423019e+01 -2.210043e+01 0
-1.879476e+01 -4.510643e+01 0
-4.023898e+00 -3.879423e+01 0
8.711206e+00 -3.636861e+01 0
2.157548e+01 -3.655391e+01 0
3.552340e+01 -3.368455e+01 0
4.502949e+01 -2.226165e+01 0
5.087113e+01 -7.867278e+00 0
5.154443e+01 8.025759e+00 0
4.494221e+01 2.325264e+01 0
3.323074e+01 3.604995e+01 0
1.787058e+01 4.582287e+01 0
0.000000e+00 -1.093887e-13 0
0.000000e+00 0.000000e+00 0
2.270503e-01 9.920368e+01 0
2.270503e-01 3.439393e+01 0
0.000000e+00 0.000000e+00 0
0.000000e+00 0.000000e+00 0
0.000000e+00 -5.181365e+01 0
-2.565228e+01 -4.586801e+01 0
-2.887280e+01 -2.733003e+01 0
-1.479812e+01 -6.045600e+01 0
-1.317109e+00 -5.266605e+01 0
1.081277e+01 -4.937029e+01 0
2.353932e+01 -5.029080e+01 0
3.764413e+01 -4.555617e+01 0
4.636807e+01 -3.016393e+01 0
5.424251e+01 -1.172668e+01 0
5.906524e+01 1.100413e+01 0
5.030324e+01 3.316301e+01 0
3.642915e+01 5.033188e+01 0
1.927039e+01 6.310415e+01 0
0.000000e+00 -1.441942e-13 0
0.000000e+00 0.000000e+00 0
7.139692e-01 9.881762e+01 0
7.139692e-01 3.439393e+01 0
0.000000e+00 0.000000e+00 0
0.000000e+00 0.000000e+00 0
0.000000e+00 -5.181365e+01 0
-1.153685e+01 -4.522541e+01 0
-1.268444e+01 -3.296110e+01 0
-7.029508e+00 -7.287088e+01 0
2.460080e+00 -6.459914e+01 0
1.272538e+01 -6.141335e+01 0
2.434634e+01 -6.358853e+01 0
3.762260e+01 -5.668624e+01 0
4.419213e+01 -3.898578e+01 0
5.699390e+01 -2.066065e+01 0
2.815870e+01 1.199487e+01 0
4.390873e+01 4.606023e+01 0
3.402957e+01 6.731789e+01 0
1.832920e+01 8.252800e+01 0
0.000000e+00 -1.939163e-13 0
0.000000e+00 0.000000e+00 0
6.177898e-01 9.848430e+01 0
6.177898e-01 3.439393e+01 0
0.000000e+00 0.000000e+00 0
0.000000e+00 0.000000e+00 0
0.000000e+00 0.000000e+00 0
0.000000e+00 0.000000e+00 0
-1.983012e+00 -3.900571e+01 0
-8.308921e-01 -7.574752e+01 0
5.379655e+00 -7.257059e+01 0
1.353254e+01 -7.142235e+01 0
2.335393e+01 -7.537664e+01 0
3.447810e+01 -6.555231e+01 0
3.562251e+01 -4.968198e+01 0
4.372155e+01 4.428216e+00 0
-3.919339e+00 2.426429e+01 0
1.541915e+01 2.732354e+01 0
2.678561e+01 7.610520e+01 0
1.384180e+01 9.739152e+01 0
0.000000e+00 -2.187774e-13 0
0.000000e+00 0.000000e+00 0
7.189220e-01 9.819515e+01 0
7.189220e-01 3.439393e+01 0
0.000000e+00 0.000000e+00 0
0.000000e+00 0.000000e+00 0
0.000000e+00 0.000000e+00 0
0.000000e+00 0.000000e+00 0
-2.545617e+00 -4.071388e+01 0
1.057923e+00 -8.029301e+01 0
6.322156e+00 -7.907139e+01 0
1.284760e+01 -7.952379e+01 0
2.058017e+01 -8.469277e+01 0
2.860246e+01 -6.904775e+01 0
2.054230e+01 -4.829925e+01 0
1.464162e+01 -2.391273e+01 0
-3.288410e-15 -4.076662e+00 0
-1.558914e+00 1.373371e+01 0
5.836426e+00 6.901310e+01 0
5.667348e+00 1.095165e+02 0
0.000000e+00 -2.386662e-13 0
0.000000e+00 0.000000e+00 0
1.062924e+00 9.775993e+01 0
1.062924e+00 3.439393e+01 0
0.000000e+00 0.000000e+00 0
0.000000e+00 0.000000e+00 0
0.000000e+00 0.000000e+00 0
0.000000e+00 0.000000e+00 0
-2.462751e+00 -4.261100e+01 0
1.479553e+00 -8.465693e+01 0
5.999935e+00 -8.444959e+01 0
1.109141e+01 -8.578838e+01 0
1.673882e+01 -9.125085e+01 0
2.159031e+01 -6.551415e+01 0
-2.612807e+00 -1.764802e+01 0
0.000000e+00 0.000000e+00 0
0.000000e+00 0.000000e+00 0
0.000000e+00 2.554332e+01 0
-8.470059e+00 7.065216e+01 0
-4.367737e-01 1.035056e+02 0
0.000000e+00 -2.386662e-13 0
0.000000e+00 0.000000e+00 0
6.554610e-01 9.712418e+01 0
6.554610e-01 3.439393e+01 0
0.000000e+00 0.000000e+00 0
0.000000e+00 0.000000e+00 0
0.000000e+00 0.000000e+00 0
0.000000e+00 -5.000000e-05 0
-1.324885e+00 -4.468696e+01 0
1.600267e+00 -8.882067e+01 0
5.115611e+00 -8.875606e+01 0
8.877744e+00 -9.034404e+01 0
1.268407e+01 -9.527121e+01 0
1.480492e+01 -4.954952e+01 0
-2.710365e+00 -5.000000e-05 0
0.000000e+00 0.000000e+00 0
0.000000e+00 0.000000e+00 0
0.000000e+00 2.554332e+01 0
-5.260633e+00 6.900811e+01 0
-1.318188e+00 1.013385e+02 0
0.000000e+00 -2.486107e-13 0
0.000000e+00 0.000000e+00 0
-1.514384e+00 9.709950e+01 0
-1.514384e+00 3.439393e+01 0
0.000000e+00 0.000000e+00 0
0.000000e+00 0.000000e+00 0
0.000000e+00 0.000000e+00 0
0.000000e+00 -5.000000e-05 0
-3.569087e-01 -4.560165e+01 0
1.401446e+00 -9.118950e+01 0
3.995767e+00 -9.178220e+01 0
6.684185e+00 -9.341418e+01 0
9.114725e+00 -9.722292e+01 0
9.663909e+00 -5.000309e+01 0
9.663909e+00 -5.000000e-05 0
0.000000e+00 0.000000e+00 0
0.000000e+00 0.000000e+00 0
0.000000e+00 2.554332e+01 0
-5.761579e+00 6.697199e+01 0
-1.492361e+00 9.849731e+01 0
0.000000e+00 -2.386662e-13 0
0.000000e+00 0.000000e+00 0
-2.690986e+00 9.865003e+01 0
-1.538873e+00 3.439393e+01 0
0.000000e+00 0.000000e+00 0
0.000000e+00 0.000000e+00 0
0.000000e+00 0.000000e+00 0
0.000000e+00 -5.000000e-05 0
-1.926346e+00 -4.650976e+01 0
5.369144e-01 -9.325745e+01 0
2.791266e+00 -9.407882e+01 0
4.786032e+00 -9.550177e+01 0
6.362408e+00 -9.827350e+01 0
6.451443e+00 -5.010287e+01 0
6.451443e+00 -5.000000e-05 0
0.000000e+00 0.000000e+00 0
0.000000e+00 0.000000e+00 0
0.000000e+00 2.554332e+01 0
-4.745895e+00 6.500167e+01 0
-9.546730e-01 9.582841e+01 0
0.000000e+00 -2.386662e-13 0
0.000000e+00 0.000000e+00 0
-1.224304e+00 6.541694e+01 0
-7.219071e-02 0.000000e+00 0
0.000000e+00 0.000000e+00 0
0.000000e+00 0.000000e+00 0
0.000000e+00 0.000000e+00 0
0.000000e+00 -5.000000e-05 0
-2.277622e+00 -4.807637e+01 0
1.321858e-02 -9.593565e+01 0
1.855892e+00 -9.606351e+01 0
3.327813e+00 -9.701238e+01 0
4.384271e+00 -9.890095e+01 0
4.330646e+00 -5.009280e+01 0
4.330646e+00 -5.000000e-05 0
0.000000e+00 0.000000e+00 0
0.000000e+00 0.000000e+00 0
0.000000e+00 2.554332e+01 0
-3.389762e+00 6.338127e+01 0
-3.263608e-02 9.394469e+01 0
0.000000e+00 -2.386662e-13 0
0.000000e+00 0.000000e+00 0
-2.417736e-02 7.780291e+01 0
-2.417736e-02 1.231999e+01 0
0.000000e+00 0.000000e+00 0
0.000000e+00 0.000000e+00 0
0.000000e+00 0.000000e+00 0
0.000000e+00 -5.000000e-05 0
-8.479312e-01 -4.879721e+01 0
1.286207e-01 -9.740153e+01 0
1.298112e+00 -9.741853e+01 0
2.298276e+00 -9.804931e+01 0
3.000884e+00 -9.928393e+01 0
2.904890e+00 -5.004883e+01 0
2.904890e+00 -5.000000e-05 0
0.000000e+00 0.000000e+00 0
0.000000e+00 0.000000e+00 0
0.000000e+00 2.554332e+01 0
-2.304746e+00 6.181121e+01 0
3.864027e-01 9.260506e+01 0
0.000000e+00 -2.386662e-13 0
0.000000e+00 0.000000e+00 0
8.611015e-02 7.775453e+01 0
8.611015e-02 1.231999e+01 0
0.000000e+00 0.000000e+00 0
0.000000e+00 0.000000e+00 0
0.000000e+00 0.000000e+00 0
0.000000e+00 -5.000000e-05 0
-3.215183e-01 -4.905889e+01 0
1.852337e-01 -9.809652e+01 0
9.123554e-01 -9.824960e+01 0
1.573786e+00 -9.872805e+01 0
2.038579e+00 -9.951216e+01 0
1.935559e+00 -4.999608e+01 0
1.935559e+00 -5.000000e-05 0
0.000000e+00 0.000000e+00 0
0.000000e+00 0.000000e+00 0
0.000000e+00 2.554332e+01 0
-8.872932e-01 6.083562e+01 0
3.535304e-01 9.178836e+01 0
0.000000e+00 -2.386662e-13 0
0.000000e+00 0.000000e+00 0
6.340614e-02 7.771614e+01 0
6.340614e-02 1.231999e+01 0
0.000000e+00 0.000000e+00 0
0.000000e+00 0.000000e+00 0
0.000000e+00 0.000000e+00 0
0.000000e+00 -5.000000e-05 0
-4.027564e-01 -4.931202e+01 0
6.973594e-02 -9.864897e+01 0
5.936068e-01 -9.881760e+01 0
1.050072e+00 -9.918406e+01 0
1.363107e+00 -9.964845e+01 0
1.268101e+00 -4.994503e+01 0
1.268101e+00 -5.000000e-05 0
0.000000e+00 0.000000e+00 0
0.000000e+00 0.000000e+00 0
0.000000e+00 0.000000e+00 0
0.000000e+00 3.513192e+01 0
5.175089e-01 9.182432e+01 0
0.000000e+00 -2.386662e-13 0
0.000000e+00 0.000000e+00 0
4.368282e-02 7.769064e+01 0
4.368282e-02 1.231999e+01 0
0.000000e+00 0.000000e+00 0
0.000000e+00 0.000000e+00 0
0.000000e+00 0.000000e+00 0
0.000000e+00 -5.000000e-05 0
-5.057985e-01 -4.953273e+01 0
-6.570737e-02 -9.909820e+01 0
3.434773e-01 -9.923736e+01 0
6.722681e-01 -9.950338e+01 0
8.878345e-01 -9.973184e+01 0
8.078579e-01 -4.990035e+01 0
8.078579e-01 -5.000000e-05 0
0.000000e+00 0.000000e+00 0
0.000000e+00 0.000000e+00 0
0.000000e+00 0.000000e+00 0
0.000000e+00 3.513192e+01 0
5.495446e-01 9.215404e+01 0
0.000000e+00 -2.386662e-13 0
0.000000e+00 0.000000e+00 0
3.276465e-02 7.767213e+01 0
3.276465e-02 1.231999e+01 0
0.000000e+00 0.000000e+00 0
0.000000e+00 0.000000e+00 0
0.000000e+00 0.000000e+00 0
0.000000e+00 -5.000000e-05 0
-3.674773e-01 -4.975897e+01 0
-1.160150e-01 -9.950820e+01 0
1.749727e-01 -9.956117e+01 0
4.093166e-01 -9.973254e+01 0
5.604174e-01 -9.978506e+01 0
5.026897e-01 -4.986445e+01 0
5.026897e-01 -5.000000e-05 0
0.000000e+00 0.000000e+00 0
0.000000e+00 0.000000e+00 0
0.000000e+00 0.000000e+00 0
0.000000e+00 3.513192e+01 0
5.556592e-01 9.238667e+01 0
0.000000e+00 -2.386662e-13 0
0.000000e+00 0.000000e+00 0
2.446796e-02 7.765763e+01 0
2.446796e-02 1.231999e+01 0
0.000000e+00 0.000000e+00 0
0.000000e+00 0.000000e+00 0
0.000000e+00 0.000000e+00 0
0.000000e+00 -5.000000e-05 0
-3.356094e-01 -4.978975e+01 0
-1.467196e-01 -9.964841e+01 0
6.391564e-02 -9.976667e+01 0
2.306102e-01 -9.989174e+01 0
3.417499e-01 -9.982592e+01 0
3.207972e-01 -4.984219e+01 0
3.207972e-01 -5.000000e-05 0
0.000000e+00 0.000000e+00 0
0.000000e+00 0.000000e+00 0
0.000000e+00 0.000000e+00 0
0.000000e+00 3.513192e+01 0
8.120817e-01 9.271596e+01 0
0.000000e+00 -2.486107e-13 0
0.000000e+00 0.000000e+00 0
1.318321e-02 7.764748e+01 0
1.318321e-02 1.231999e+01 0
0.000000e+00 0.000000e+00 0
0.000000e+00 0.000000e+00 0
0.000000e+00 0.000000e+00 0
0.000000e+00 -5.000000e-05 0
-2.960253e-01 -4.994839e+01 0
-1.485982e-01 -9.990986e+01 0
-2.623882e-03 -9.994135e+01 0
1.079430e-01 -1.000125e+02 0
1.858782e-01 -9.987593e+01 0
1.964578e-01 -4.984334e+01 0
1.285292e-01 -5.000000e-05 0
0.000000e+00 0.000000e+00 0
0.000000e+00 0.000000e+00 0
0.000000e+00 0.000000e+00 0
0.000000e+00 3.513192e+01 0
1.111000e+00 9.320295e+01 0
0.000000e+00 -2.386662e-13 0
0.000000e+00 0.000000e+00 0
3.106417e-03 7.764435e+01 0
3.106417e-03 1.231999e+01 0
0.000000e+00 0.000000e+00 0
0.000000e+00 0.000000e+00 0
0.000000e+00 0.000000e+00 0
0.000000e+00 -5.000000e-05 0
-9.805044e-02 -4.993749e+01 0
-9.644181e-02 -9.994323e+01 0
-3.348759e-02 -1.000252e+02 0
1.789807e-02 -1.000817e+02 0
4.964821e-02 -9.991511e+01 0
-5.867298e-03 -4.985280e+01 0
0.000000e+00 0.000000e+00 0
0.000000e+00 0.000000e+00 0
0.000000e+00 0.000000e+00 0
0.000000e+00 0.000000e+00 0
0.000000e+00 3.513192e+01 0
6.267034e-01 9.383701e+01 0
0.000000e+00 -2.386662e-13 0
0.000000e+00 -5.751050e-06 0
0.000000e+00 7.764435e+01 0
0.000000e+00 1.231999e+01 0
0.000000e+00 0.000000e+00 0
0.000000e+00 0.000000e+00 0
0.000000e+00 0.000000e+00 0
0.000000e+00 -5.000000e-05 0
-8.767682e-02 -4.995022e+01 0
-6.838770e-02 -9.997512e+01 0
-5.311622e-02 -1.000566e+02 0
-5.300384e-02 -1.000962e+02 0
-7.973100e-02 -9.985199e+01 0
-2.376315e-01 -4.978735e+01 0
0.000000e+00 0.000000e+00 0
0.000000e+00 0.000000e+00 0
0.000000e+00 0.000000e+00 0
0.000000e+00 0.000000e+00 0
0.000000e+00 0.000000e+00 0
0.000000e+00 5.885470e+01 0
0.000000e+00 -2.486107e-13 0
0.000000e+00 0.000000e+00 0
0.000000e+00 0.000000e+00 0
0.000000e+00 0.000000e+00 0
0.000000e+00 0.000000e+00 0
0.000000e+00 0.000000e+00 0
0.000000e+00 0.000000e+00 0
0.000000e+00 -5.000000e-05 0
-3.270533e-02 -4.995655e+01 0
-3.618444e-02 -9.997768e+01 0
-5.798623e-02 -1.000407e+02 0
-9.757481e-02 -1.000549e+02 0
-1.835109e-01 -9.972908e+01 0
-4.035895e-01 -4.969370e+01 0
0.000000e+00 0.000000e+00 0
0.000000e+00 0.000000e+00 0
0.000000e+00 0.000000e+00 0
0.000000e+00 0.000000e+00 0
0.000000e+00 0.000000e+00 0
0.000000e+00 5.885470e+01 0
0.000000e+00 -2.486107e-13 0
0.000000e+00 0.000000e+00 0
0.000000e+00 0.000000e+00 0
0.000000e+00 0.000000e+00 0
0.000000e+00 0.000000e+00 0
0.000000e+00 0.000000e+00 0
0.000000e+00 0.000000e+00 0
0.000000e+00 0.000000e+00 0
0.000000e+00 -4.999080e+01 0
-1.011749e-02 -9.999359e+01 0
-4.547629e-02 -9.999451e+01 0
-9.516351e-02 -9.996977e+01 0
-2.041131e-01 -9.954366e+01 0
-2.827230e-01 -4.956561e+01 0
-4.296901e-02 0.000000e+00 0
0.000000e+00 0.000000e+00 0
0.000000e+00 0.000000e+00 0
0.000000e+00 0.000000e+00 0
0.000000e+00 0.000000e+00 0
0.000000e+00 5.885470e+01 0
0.000000e+00 -2.486107e-13 0
0.000000e+00 0.000000e+00 0
0.000000e+00 0.000000e+00 0
0.000000e+00 0.000000e+00 0
0.000000e+00 0.000000e+00 0
0.000000e+00 0.000000e+00 0
0.000000e+00 0.000000e+00 0
0.000000e+00 0.000000e+00 0
0.000000e+00 -5.000000e+01 0
0.000000e+00 -9.998559e+01 0
-1.831317e-02 -9.995500e+01 0
-3.110084e-02 -9.989502e+01 0
-3.549845e-02 -9.953933e+01 0
3.059761e-01 -4.961637e+01 0
3.059761e-01 -2.650000e-03 0
0.000000e+00 0.000000e+00 0
0.000000e+00 0.000000e+00 0
0.000000e+00 0.000000e+00 0
0.000000e+00 0.000000e+00 0
0.000000e+00 5.885470e+01 0
0.000000e+00 -2.486107e-13 0
0.000000e+00 0.000000e+00 0
0.000000e+00 0.000000e+00 0
0.000000e+00 0.000000e+00 0
0.000000e+00 0.000000e+00 0
0.000000e+00 0.000000e+00 0
0.000000e+00 0.000000e+00 0
0.000000e+00 0.000000e+00 0
0.000000e+00 -5.000000e+01 0
0.000000e+00 -9.998474e+01 0
4.360216e-03 -9.996358e+01 0
2.556044e-02 -9.995246e+01 0
9.690338e-02 -9.988251e+01 0
4.778851e-01 -4.991155e+01 0
4.778851e-01 -2.650000e-03 0
0.000000e+00 0.000000e+00 0
0.000000e+00 0.000000e+00 0
0.000000e+00 0.000000e+00 0
0.000000e+00 0.000000e+00 0
0.000000e+00 5.885470e+01 0
0.000000e+00 -2.486107e-13 0
0.000000e+00 0.000000e+00 0
0.000000e+00 0.000000e+00 0
0.000000e+00 0.000000e+00 0
0.000000e+00 0.000000e+00 0
0.000000e+00 0.000000e+00 0
0.000000e+00 0.000000e+00 0
0.000000e+00 0.000000e+00 0
0.000000e+00 -5.000000e+01 0
0.000000e+00 -9.999027e+01 0
1.107991e-02 -9.998104e+01 0
3.127145e-02 -9.998826e+01 0
6.660855e-02 -9.999508e+01 0
1.692276e-01 -5.000024e+01 0
1.289399e-01 -2.650000e-03 0
0.000000e+00 0.000000e+00 0
0.000000e+00 0.000000e+00 0
0.000000e+00 0.000000e+00 0
0.000000e+00 0.000000e+00 0
0.000000e+00 5.885470e+01 0
0.000000e+00 -2.486107e-13 0
0.000000e+00 0.000000e+00 0
0.000000e+00 0.000000e+00 0
0.000000e+00 0.000000e+00 0
0.000000e+00 0.000000e+00 0
0.000000e+00 0.000000e+00 0
0.000000e+00 0.000000e+00 0
0.000000e+00 0.000000e+00 0
0.000000e+00 -5.000000e+01 0
0.000000e+00 -9.999608e+01 0
9.361486e-03 -9.999526e+01 0
2.152182e-02 -1.000084e+02 0
3.518342e-02 -1.000215e+02 0
5.053363e-02 -5.001229e+01 0
0.000000e+00 0.000000e+00 0
0.000000e+00 0.000000e+00 0
0.000000e+00 0.000000e+00 0
0.000000e+00 0.000000e+00 0
0.000000e+00 0.000000e+00 0
0.000000e+00 5.885470e+01 0
0.000000e+00 -2.486107e-13 0
0.000000e+00 0.000000e+00 0
0.000000e+00 0.000000e+00 0
0.000000e+00 0.000000e+00 0
0.000000e+00 0.000000e+00 0
0.000000e+00 0.000000e+00 0
0.000000e+00 0.000000e+00 0
0.000000e+00 0.000000e+00 0
0.000000e+00 -5.000000e+01 0
0.000000e+00 -9.999980e+01 0
5.290262e-03 -1.000028e+02 0
1.008512e-02 -1.000143e+02 0
1.093302e-02 -1.000243e+02 0
1.322677e-02 -5.001306e+01 0
0.000000e+00 0.000000e+00 0
0.000000e+00 0.000000e+00 0
0.000000e+00 0.000000e+00 0
0.000000e+00 0.000000e+00 0
0.000000e+00 0.000000e+00 0
0.000000e+00 0.000000e+00 0
0.000000e+00 0.000000e+00 0
0.000000e+00 0.000000e+00 0
0.000000e+00 0.000000e+00 0
0.000000e+00 0.000000e+00 0
0.000000e+00 0.000000e+00 0
0.000000e+00 0.000000e+00 0
0.000000e+00 0.000000e+00 0
0.000000e+00 0.000000e+00 0
0.000000e+00 -5.000000e+01 0
0.000000e+00 -1.000015e+02 0
1.893964e-03 -1.000055e+02 0
2.320835e-03 -1.000141e+02 0
-1.293960e-03 -1.000247e+02 0
2.545073e-03 -5.001460e+01 0
0.000000e+00 0.000000e+00 0
0.000000e+00 0.000000e+00 0
0.000000e+00 0.000000e+00 0
0.000000e+00 0.000000e+00 0
0.000000e+00 0.000000e+00 0
0.000000e+00 0.000000e+00 0
0.000000e+00 0.000000e+00 0
0.000000e+00 0.000000e+00 0
0.000000e+00 0.000000e+00 0
0.000000e+00 0.000000e+00 0
0.000000e+00 0.000000e+00 0
0.000000e+00 0.000000e+00 0
0.000000e+00 0.000000e+00 0
0.000000e+00 0.000000e+00 0
0.000000e+00 -5.000000e+01 0
0.000000e+00 -1.000017e+02 0
-1.733452e-04 -1.000052e+02 0
-1.980049e-03 -1.000111e+02 0
-7.338377e-03 -1.000245e+02 0
-6.083582e-03 -5.001693e+01 0
0.000000e+00 0.000000e+00 0
0.000000e+00 0.000000e+00 0
0.000000e+00 0.000000e+00 0
0.000000e+00 0.000000e+00 0
0.000000e+00 0.000000e+00 0
0.000000e+00 0.000000e+00 0
0.000000e+00 0.000000e+00 0
0.000000e+00 0.000000e+00 0
0.000000e+00 0.000000e+00 0
0.000000e+00 0.000000e+00 0
0.000000e+00 0.000000e+00 0
0.000000e+00 0.000000e+00 0
0.000000e+00 0.000000e+00 0
0.000000e+00 0.000000e+00 0
0.000000e+00 -5.000000e+01 0
0.000000e+00 -1.000012e+02 0
-1.077029e-03 -1.000034e+02 0
-3.686877e-03 -1.000069e+02 0
-9.414694e-03 -1.000205e+02 0
-2.621322e-02 -5.001587e+01 0
0.000000e+00 0.000000e+00 0
0.000000e+00 0.000000e+00 0
0.000000e+00 0.000000e+00 0
0.000000e+00 0.000000e+00 0
0.000000e+00 0.000000e+00 0
0.000000e+00 0.000000e+00 0
0.000000e+00 0.000000e+00 0
0.000000e+00 0.000000e+00 0
0.000000e+00 0.000000e+00 0
0.000000e+00 0.000000e+00 0
0.000000e+00 0.000000e+00 0
0.000000e+00 0.000000e+00 0
0.000000e+00 0.000000e+00 0
0.000000e+00 0.000000e+00 0
0.000000e+00 -5.000000e+01 0
0.000000e+00 -1.000005e+02 0
-1.049288e-03 -1.000013e+02 0
-3.228154e-03 -1.000027e+02 0
-7.870924e-03 -1.000018e+02 0
-2.361921e-02 -5.000000e+01 0
0.000000e+00 0.000000e+00 0
0.000000e+00 0.000000e+00 0
0.000000e+00 0.000000e+00 0
0.000000e+00 0.000000e+00 0
0.000000e+00 0.000000e+00 0
0.000000e+00 0.000000e+00 0
0.000000e+00 0.000000e+00 0
0.000000e+00 0.000000e+00 0
0.000000e+00 0.000000e+00 0
0.000000e+00 0.000000e+00 0
0.000000e+00 0.000000e+00 0
0.000000e+00 0.000000e+00 0
0.000000e+00 0.000000e+00 0
0.000000e+00 0.000000e+00 0
0.000000e+00 -5.000000e+01 0
0.000000e+00 -1.000000e+02 0
-3.490018e-18 -1.000000e+02 0
-1.031831e-17 -1.000000e+02 0
-2.572697e-17 -1.000000e+02 0
-2.549230e-17 -5.000000e+01 0
0.000000e+00 0.000000e+00 0
0.000000e+00 0.000000e+00 0
0.000000e+00 0.000000e+00 0
0.000000e+00 0.000000e+00 0
0.000000e+00 0.000000e+00 0
0.000000e+00 0.000000e+00 0
0.000000e+00 0.000000e+00 0
</DataArray>
<DataArray Name="Type and Neighbourhood" type="Float64" format="ascii" NumberOfComponents="3">
0.000000e+00 0.000000e+00 0
0.000000e+00 0.000000e+00 0
0.000000e+00 0.000000e+00 0
1.100000e+01 1.000000e+00 0
1.100000e+01 1.000000e+00 0
0.000000e+00 0.000000e+00 0
0.000000e+00 0.000000e+00 0
0.000000e+00 0.000000e+00 0
0.000000e+00 0.000000e+00 0
0.000000e+00 0.000000e+00 0
0.000000e+00 0.000000e+00 0
0.000000e+00 0.000000e+00 0