<?xml version="1.0"?>
<VTKFile type="StructuredGrid">
<StructuredGrid WholeExtent="0 19 0 33 0 0 ">
<Piece Extent="0 19 0 33 0 0 ">
<Points>
<DataArray type="Float64" format="ascii" NumberOfComponents="3">
0.000000e+00 0.000000e+00 0.000000e+00
1.052632e-01 0.000000e+00 0.000000e+00
2.105263e-01 0.000000e+00 0.000000e+00
3.157895e-01 0.000000e+00 0.000000e+00
4.210526e-01 0.000000e+00 0.000000e+00
5.263158e-01 0.000000e+00 0.000000e+00
6.315789e-01 0.000000e+00 0.000000e+00
7.368421e-01 0.000000e+00 0.000000e+00
8.421053e-01 0.000000e+00 0.000000e+00
9.473684e-01 0.000000e+00 0.000000e+00
1.052632e+00 0.000000e+00 0.000000e+00
1.157895e+00 0.000000e+00 0.000000e+00
1.263158e+00 0.000000e+00 0.000000e+00
1.368421e+00 0.000000e+00 0.000000e+00
1.473684e+00 0.000000e+00 0.000000e+00
1.578947e+00 0.000000e+00 0.000000e+00
1.684211e+00 0.000000e+00 0.000000e+00
1.789474e+00 0.000000e+00 0.000000e+00
1.894737e+00 0.000000e+00 0.000000e+00
2.000000e+00 0.000000e+00 0.000000e+00
0.000000e+00 1.060606e-01 0.000000e+00
1.052632e-01 1.060606e-01 0.000000e+00
2.105263e-01 1.060606e-01 0.000000e+00
3.157895e-01 1.060606e-01 0.000000e+00
4.210526e-01 1.060606e-01 0.000000e+00
5.263158e-01 1.060606e-01 0.000000e+00
6.315789e-01 1.060606e-01 0.000000e+00
7.368421e-01 1.060606e-01 0.000000e+00
8.421053e-01 1.060606e-01 0.000000e+00
9.473684e-01 1.060606e-01 0.000000e+00
1.052632e+00 1.060606e-01 0.000000e+00
1.157895e+00 1.060606e-01 0.000000e+00
1.263158e+00 1.060606e-01 0.000000e+00
1.368421e+00 1.060606e-01 0.000000e+00
1.473684e+00 1.060606e-01 0.000000e+00
1.578947e+00 1.060606e-01 0.000000e+00
1.684211e+00 1.060606e-01 0.000000e+00
1.789474e+00 1.060606e-01 0.000000e+00
1.894737e+00 1.060606e-01 0.000000e+00
2.000000e+00 1.060606e-01 0.000000e+00
0.000000e+00 2.121212e-01 0.000000e+00
1.052632e-01 2.121212e-01 0.000000e+00
2.105263e-01 2.121212e-01 0.000000e+00
3.157895e-01 2.121212e-01 0.000000e+00
4.210526e-01 2.121212e-01 0.000000e+00
5.263158e-01 2.121212e-01 0.000000e+00
6.315789e-01 2.121212e-01 0.000000e+00
7.368421e-01 2.121212e-01 0.000000e+00
8.421053e-01 2.121212e-01 0.000000e+00
9.473684e-01 2.121212e-01 0.000000e+00
1.052632e+00 2.121212e-01 0.000000e+00
1.157895e+00 2.121212e-01 0.000000e+00
1.263158e+00 2.121212e-01 0.000000e+00
1.368421e+00 2.121212e-01 0.000000e+00
1.473684e+00 2.121212e-01 0.000000e+00
1.578947e+00 2.121212e-01 0.000000e+00
1.684211e+00 2.121212e-01 0.000000e+00
1.789474e+00 2.121212e-01 0.000000e+00
1.894737e+00 2.121212e-01 0.000000e+00
2.000000e+00 2.121212e-01 0.000000e+00
0.000000e+00 3.181818e-01 0.000000e+00
1.052632e-01 3.181818e-01 0.000000e+00
2.105263e-01 3.181818e-01 0.000000e+00
3.157895e-01 3.181818e-01 0.000000e+00
4.210526e-01 3.181818e-01 0.000000e+00
5.263158e-01 3.181818e-01 0.000000e+00
6.315789e-01 3.181818e-01 0.000000e+00
7.368421e-01 3.181818e-01 0.000000e+00
8.421053e-01 3.181818e-01 0.000000e+00
9.473684e-01 3.181818e-01 0.000000e+00
1.052632e+00 3.181818e-01 0.000000e+00
1.157895e+00 3.181818e-01 0.000000e+00
1.263158e+00 3.181818e-01 0.000000e+00
1.368421e+00 3.181818e-01 0.000000e+00
1.473684e+00 3.181818e-01 0.000000e+00
1.578947e+00 3.181818e-01 0.000000e+00
1.684211e+00 3.181818e-01 0.000000e+00
1.789474e+00 3.181818e-01 0.000000e+00
1.894737e+00 3.181818e-01 0.000000e+00
2.000000e+00 3.181818e-01 0.000000e+00
0.000000e+00 4.242424e-01 0.000000e+00
1.052632e-01 4.242424e-01 0.000000e+00
2.105263e-01 4.242424e-01 0.000000e+00
3.157895e-01 4.242424e-01 0.000000e+00
4.210526e-01 4.242424e-01 0.000000e+00
5.263158e-01 4.242424e-01 0.000000e+00
6.315789e-01 4.242424e-01 0.000000e+00
7.368421e-01 4.242424e-01 0.000000e+00
8.421053e-01 4.242424e-01 0.000000e+00
9.473684e-01 4.242424e-01 0.000000e+00
1.052632e+00 4.242424e-01 0.000000e+00
1.157895e+00 4.242424e-01 0.000000e+00
1.263158e+00 4.242424e-01 0.000000e+00
1.368421e+00 4.242424e-01 0.000000e+00
1.473684e+00 4.242424e-01 0.000000e+00
1.578947e+00 4.242424e-01 0.000000e+00
1.684211e+00 4.242424e-01 0.000000e+00
1.789474e+00 4.242424e-01 0.000000e+00
1.894737e+00 4.242424e-01 0.000000e+00
2.000000e+00 4.242424e-01 0.000000e+00
0.000000e+00 5.303030e-01 0.000000e+00
1.052632e-01 5.303030e-01 0.000000e+00
2.105263e-01 5.303030e-01 0.000000e+00
3.157895e-01 5.303030e-01 0.000000e+00
4.210526e-01 5.303030e-01 0.000000e+00
5.263158e-01 5.303030e-01 0.000000e+00
6.315789e-01 5.303030e-01 0.000000e+00
7.368421e-01 5.303030e-01 0.000000e+00
8.421053e-01 5.303030e-01 0.000000e+00
9.473684e-01 5.303030e-01 0.000000e+00
1.052632e+00 5.303030e-01 0.000000e+00
1.157895e+00 5.303030e-01 0.000000e+00
1.263158e+00 5.303030e-01 0.000000e+00
1.368421e+00 5.303030e-01 0.000000e+00
1.473684e+00 5.303030e-01 0.000000e+00
1.578947e+00 5.303030e-01 0.000000e+00
1.684211e+00 5.303030e-01 0.000000e+00
1.789474e+00 5.303030e-01 0.000000e+00
1.894737e+00 5.303030e-01 0.000000e+00
2.000000e+00 5.303030e-01 0.000000e+00
0.000000e+00 6.363636e-01 0.000000e+00
1.052632e-01 6.363636e-01 0.000000e+00
2.105263e-01 6.363636e-01 0.000000e+00
3.157895e-01 6.363636e-01 0.000000e+00
4.210526e-01 6.363636e-01 0.000000e+00
5.263158e-01 6.363636e-01 0.000000e+00
6.315789e-01 6.363636e-01 0.000000e+00
7.368421e-01 6.363636e-01 0.000000e+00
8.421053e-01 6.363636e-01 0.000000e+00
9.473684e-01 6.363636e-01 0.000000e+00
1.052632e+00 6.363636e-01 0.000000e+00
1.157895e+00 6.363636e-01 0.000000e+00
1.263158e+00 6.363636e-01 0.000000e+00
1.368421e+00 6.363636e-01 0.000000e+00
1.473684e+00 6.363636e-01 0.000000e+00
1.578947e+00 6.363636e-01 0.000000e+00
1.684211e+00 6.363636e-01 0.000000e+00
1.789474e+00 6.363636e-01 0.000000e+00
1.894737e+00 6.363636e-01 0.000000e+00
2.000000e+00 6.363636e-01 0.000000e+00
0.000000e+00 7.424242e-01 0.000000e+00
1.052632e-01 7.424242e-01 0.000000e+00
2.105263e-01 7.424242e-01 0.000000e+00
3.157895e-01 7.424242e-01 0.000000e+00
4.210526e-01 7.424242e-01 0.000000e+00
5.263158e-01 7.424242e-01 0.000000e+00
6.315789e-01 7.424242e-01 0.000000e+00
7.368421e-01 7.424242e-01 0.000000e+00
8.421053e-01 7.424242e-01 0.000000e+00
9.473684e-01 7.424242e-01 0.000000e+00
1.052632e+00 7.424242e-01 0.000000e+00
1.157895e+00 7.424242e-01 0.000000e+00
1.263158e+00 7.424242e-01 0.000000e+00
1.368421e+00 7.424242e-01 0.000000e+00
1.473684e+00 7.424242e-01 0.000000e+00
1.578947e+00 7.424242e-01 0.000000e+00
1.684211e+00 7.424242e-01 0.000000e+00
1.789474e+00 7.424242e-01 0.000000e+00
1.894737e+00 7.424242e-01 0.000000e+00
2.000000e+00 7.424242e-01 0.000000e+00
0.000000e+00 8.484848e-01 0.000000e+00
1.052632e-01 8.484848e-01 0.000000e+00
2.105263e-01 8.484848e-01 0.000000e+00
3.157895e-01 8.484848e-01 0.000000e+00
4.210526e-01 8.484848e-01 0.000000e+00
5.263158e-01 8.484848e-01 0.000000e+00
6.315789e-01 8.484848e-01 0.000000e+00
7.368421e-01 8.484848e-01 0.000000e+00
8.421053e-01 8.484848e-01 0.000000e+00
9.473684e-01 8.484848e-01 0.000000e+00
1.052632e+00 8.484848e-01 0.000000e+00
1.157895e+00 8.484848e-01 0.000000e+00
1.263158e+00 8.484848e-01 0.000000e+00
1.368421e+00 8.484848e-01 0.000000e+00
1.473684e+00 8.484848e-01 0.000000e+00
1.578947e+00 8.484848e-01 0.000000e+00
1.684211e+00 8.484848e-01 0.000000e+00
1.789474e+00 8.484848e-01 0.000000e+00
1.894737e+00 8.484848e-01 0.000000e+00
2.000000e+00 8.484848e-01 0.000000e+00
0.000000e+00 9.545455e-01 0.000000e+00
1.052632e-01 9.545455e-01 0.000000e+00
2.105263e-01 9.545455e-01 0.000000e+00
3.157895e-01 9.545455e-01 0.000000e+00
4.210526e-01 9.545455e-01 0.000000e+00
5.263158e-01 9.545455e-01 0.000000e+00
6.315789e-01 9.545455e-01 0.000000e+00
7.368421e-01 9.545455e-01 0.000000e+00
8.421053e-01 9.545455e-01 0.000000e+00
9.473684e-01 9.545455e-01 0.000000e+00
1.052632e+00 9.545455e-01 0.000000e+00
1.157895e+00 9.545455e-01 0.000000e+00
1.263158e+00 9.545455e-01 0.000000e+00
1.368421e+00 9.545455e-01 0.000000e+00
1.473684e+00 9.545455e-01 0.000000e+00
1.578947e+00 9.545455e-01 0.000000e+00
1.684211e+00 9.545455e-01 0.000000e+00
1.789474e+00 9.545455e-01 0.000000e+00
1.894737e+00 9.545455e-01 0.000000e+00
2.000000e+00 9.545455e-01 0.000000e+00
0.000000e+00 1.060606e+00 0.000000e+00
1.052632e-01 1.060606e+00 0.000000e+00
2.105263e-01 1.060606e+00 0.000000e+00
3.157895e-01 1.060606e+00 0.000000e+00
4.210526e-01 1.060606e+00 0.000000e+00
5.263158e-01 1.060606e+00 0.000000e+00
6.315789e-01 1.060606e+00 0.000000e+00
7.368421e-01 1.060606e+00 0.000000e+00
8.421053e-01 1.060606e+00 0.000000e+00
9.473684e-01 1.060606e+00 0.000000e+00
1.052632e+00 1.060606e+00 0.000000e+00
1.157895e+00 1.060606e+00 0.000000e+00
1.263158e+00 1.060606e+00 0.000000e+00
1.368421e+00 1.060606e+00 0.000000e+00
1.473684e+00 1.060606e+00 0.000000e+00
1.578947e+00 1.060606e+00 0.000000e+00
1.684211e+00 1.060606e+00 0.000000e+00
1.789474e+00 1.060606e+00 0.000000e+00
1.894737e+00 1.060606e+00 0.000000e+00
2.000000e+00 1.060606e+00 0.000000e+00
0.000000e+00 1.166667e+00 0.000000e+00
1.052632e-01 1.166667e+00 0.000000e+00
2.105263e-01 1.166667e+00 0.000000e+00
3.157895e-01 1.166667e+00 0.000000e+00
4.210526e-01 1.166667e+00 0.000000e+00
5.263158e-01 1.166667e+00 0.000000e+00
6.315789e-01 1.166667e+00 0.000000e+00
7.368421e-01 1.166667e+00 0.000000e+00
8.421053e-01 1.166667e+00 0.000000e+00
9.473684e-01 1.166667e+00 0.000000e+00
1.052632e+00 1.166667e+00 0.000000e+00
1.157895e+00 1.166667e+00 0.000000e+00
1.263158e+00 1.166667e+00 0.000000e+00
1.368421e+00 1.166667e+00 0.000000e+00
1.473684e+00 1.166667e+00 0.000000e+00
1.578947e+00 1.166667e+00 0.000000e+00
1.684211e+00 1.166667e+00 0.000000e+00
1.789474e+00 1.166667e+00 0.000000e+00
1.894737e+00 1.166667e+00 0.000000e+00
2.000000e+00 1.166667e+00 0.000000e+00
0.000000e+00 1.272727e+00 0.000000e+00
1.052632e-01 1.272727e+00 0.000000e+00
2.105263e-01 1.272727e+00 0.000000e+00
3.157895e-01 1.272727e+00 0.000000e+00
4.210526e-01 1.272727e+00 0.000000e+00
5.263158e-01 1.272727e+00 0.000000e+00
6.315789e-01 1.272727e+00 0.000000e+00
7.368421e-01 1.272727e+00 0.000000e+00
8.421053e-01 1.272727e+00 0.000000e+00
9.473684e-01 1.272727e+00 0.000000e+00
1.052632e+00 1.272727e+00 0.000000e+00
[...]
<PointData>
<DataArray Name="Velocity" type="Float64" format="ascii" NumberOfComponents="3">
0.000000e+00 0.000000e+00 0
0.000000e+00 0.000000e+00 0
0.000000e+00 0.000000e+00 0
0.000000e+00 0.000000e+00 0
0.000000e+00 0.000000e+00 0
0.000000e+00 0.000000e+00 0
0.000000e+00 0.000000e+00 0
0.000000e+00 0.000000e+00 0
0.000000e+00 0.000000e+00 0
0.000000e+00 0.000000e+00 0
0.000000e+00 0.000000e+00 0
-1.791276e-16 0.000000e+00 0
0.000000e+00 0.000000e+00 0
0.000000e+00 0.000000e+00 0
0.000000e+00 0.000000e+00 0
-4.504132e-16 0.000000e+00 0
0.000000e+00 0.000000e+00 0
0.000000e+00 0.000000e+00 0
0.000000e+00 0.000000e+00 0
0.000000e+00 0.000000e+00 0
0.000000e+00 0.000000e+00 0
-6.141423e+01 6.863237e+01 0
-9.895319e+01 3.953761e+01 0
-1.124090e+02 1.905706e+01 0
-8.703011e+01 9.924044e-01 0
-8.255711e+01 -5.621414e+01 0
-3.436543e+01 -6.303246e+01 0
-3.436764e+01 -2.209584e+01 0
-1.782473e+01 -1.599728e+01 0
-6.548233e+00 -1.150245e+01 0
5.323155e+00 -1.091246e+01 0
1.542423e+01 -1.031305e+01 0
2.714997e+01 -1.021906e+01 0
3.621095e+01 -6.927789e+00 0
4.090583e+01 -2.372898e+00 0
4.076681e+01 2.307370e+00 0
3.597253e+01 6.614949e+00 0
2.704886e+01 1.029577e+01 0
1.477223e+01 1.327755e+01 0
0.000000e+00 -3.107633e-14 0
0.000000e+00 0.000000e+00 0
-2.467837e+01 9.970283e+01 0
-3.302920e+01 5.138112e+01 0
-3.083685e+01 1.355777e+01 0
0.000000e+00 0.000000e+00 0
0.000000e+00 -5.030759e+01 0
-1.904867e+01 -5.046980e+01 0
-3.152141e+01 -1.683044e+01 0
-1.869161e+01 -2.803016e+01 0
-5.700020e+00 -2.332325e+01 0
5.967730e+00 -2.213893e+01 0
1.757035e+01 -2.199217e+01 0
3.022441e+01 -2.094419e+01 0
3.934628e+01 -1.386007e+01 0
4.404515e+01 -4.590377e+00 0
4.376287e+01 4.970677e+00 0
3.846567e+01 1.382187e+01 0
2.874404e+01 2.136090e+01 0
1.554551e+01 2.725377e+01 0
0.000000e+00 -5.966656e-14 0
0.000000e+00 0.000000e+00 0
-7.243008e+00 1.019118e+02 0
-3.839378e+00 3.439393e+01 0
0.000000e+00 3.548006e-15 0
0.000000e+00 0.000000e+00 0
0.000000e+00 -5.181365e+01 0
-2.950048e+01 -5.078743e+01 0
-3.328491e+01 -2.267141e+01 0
-1.885427e+01 -4.201429e+01 0
-4.789712e+00 -3.634860e+01 0
7.454947e+00 -3.435913e+01 0
1.993265e+01 -3.475350e+01 0
3.334226e+01 -3.215996e+01 0
4.226770e+01 -2.085322e+01 0
4.723327e+01 -6.822942e+00 0
4.734723e+01 7.929116e+00 0
4.155074e+01 2.174756e+01 0
3.075456e+01 3.338957e+01 0
1.647275e+01 4.223934e+01 0
0.000000e+00 -9.944426e-14 0
0.000000e+00 0.000000e+00 0
-1.798424e+00 1.035713e+02 0
-1.798424e+00 3.439393e+01 0
0.000000e+00 0.000000e+00 0
0.000000e+00 0.000000e+00 0
0.000000e+00 -5.181365e+01 0
-2.565228e+01 -4.823255e+01 0
-3.023547e+01 -2.762709e+01 0
-1.630895e+01 -5.674123e+01 0
-2.728390e+00 -4.983178e+01 0
9.337085e+00 -4.704858e+01 0
2.190491e+01 -4.807560e+01 0
3.553025e+01 -4.344844e+01 0
4.360804e+01 -2.785632e+01 0
4.938451e+01 -9.708389e+00 0
5.232000e+01 1.069626e+01 0
4.660823e+01 3.054025e+01 0
3.404403e+01 4.662888e+01 0
1.787564e+01 5.824132e+01 0
0.000000e+00 -1.342498e-13 0
0.000000e+00 0.000000e+00 0
4.989731e-01 1.037238e+02 0
4.989731e-01 3.439393e+01 0
0.000000e+00 0.000000e+00 0
0.000000e+00 0.000000e+00 0
0.000000e+00 -5.181365e+01 0
-1.966785e+01 -4.616215e+01 0
-1.922755e+01 -3.207815e+01 0
-1.037343e+01 -6.972975e+01 0
4.732605e-01 -6.218892e+01 0
1.119737e+01 -5.917904e+01 0
2.293738e+01 -6.114510e+01 0
3.592599e+01 -5.402750e+01 0
4.201501e+01 -3.481243e+01 0
4.930125e+01 -1.560090e+01 0
4.720639e+01 1.072642e+01 0
4.549161e+01 4.016198e+01 0
3.349902e+01 6.233982e+01 0
1.762420e+01 7.654129e+01 0
0.000000e+00 -1.789997e-13 0
0.000000e+00 0.000000e+00 0
1.672601e+00 1.030685e+02 0
1.672601e+00 3.439393e+01 0
0.000000e+00 0.000000e+00 0
0.000000e+00 0.000000e+00 0
0.000000e+00 -5.181365e+01 0
-8.130998e+00 -4.860489e+01 0
-7.069208e+00 -3.692063e+01 0
-3.742404e+00 -7.659129e+01 0
3.620496e+00 -7.156599e+01 0
1.234663e+01 -6.968288e+01 0
2.250787e+01 -7.299156e+01 0
3.380892e+01 -6.267060e+01 0
3.569606e+01 -4.133290e+01 0
4.142386e+01 -1.493910e+01 0
1.884794e+01 1.453476e+01 0
2.647713e+01 4.435146e+01 0
2.641708e+01 7.470740e+01 0
1.425046e+01 9.199412e+01 0
0.000000e+00 -2.088330e-13 0
0.000000e+00 0.000000e+00 0
2.096765e+00 1.020386e+02 0
2.096765e+00 3.439393e+01 0
0.000000e+00 0.000000e+00 0
0.000000e+00 0.000000e+00 0
0.000000e+00 0.000000e+00 0
0.000000e+00 0.000000e+00 0
-2.545617e+00 -4.104543e+01 0
-1.371485e-02 -8.046420e+01 0
5.364988e+00 -7.839984e+01 0
1.224446e+01 -7.820950e+01 0
2.043478e+01 -8.276998e+01 0
2.912663e+01 -6.731560e+01 0
2.254921e+01 -4.248506e+01 0
1.711430e+01 1.374857e+00 0
-7.006147e-01 2.578639e+01 0
5.947270e+00 3.253551e+01 0
1.419972e+01 7.465912e+01 0
8.462886e+00 1.031585e+02 0
0.000000e+00 -2.287218e-13 0
0.000000e+00 0.000000e+00 0
2.047204e+00 1.009559e+02 0
2.047204e+00 3.439393e+01 0
0.000000e+00 0.000000e+00 0
0.000000e+00 0.000000e+00 0
0.000000e+00 0.000000e+00 0
0.000000e+00 0.000000e+00 0
-2.462751e+00 -4.264523e+01 0
1.086319e+00 -8.452658e+01 0
5.612020e+00 -8.391703e+01 0
1.096610e+01 -8.486684e+01 0
1.710894e+01 -9.000163e+01 0
2.286204e+01 -6.480105e+01 0
-7.332226e-01 -2.922956e+01 0
-5.392811e-02 8.486862e+00 0
-5.392811e-02 2.578639e+01 0
-5.392811e-02 2.943342e+01 0
8.466552e-01 7.226791e+01 0
2.531553e+00 1.063014e+02 0
0.000000e+00 -2.386662e-13 0
0.000000e+00 0.000000e+00 0
1.860406e+00 9.997586e+01 0
1.860406e+00 3.439393e+01 0
0.000000e+00 0.000000e+00 0
0.000000e+00 0.000000e+00 0
0.000000e+00 0.000000e+00 0
0.000000e+00 -5.000000e-05 0
-1.324885e+00 -4.462044e+01 0
1.477007e+00 -8.859915e+01 0
5.026723e+00 -8.835446e+01 0
8.994042e+00 -8.979353e+01 0
1.318825e+01 -9.475604e+01 0
1.588329e+01 -4.933827e+01 0
-1.614674e+00 -5.000000e-05 0
0.000000e+00 0.000000e+00 0
0.000000e+00 0.000000e+00 0
0.000000e+00 2.554332e+01 0
-5.260633e+00 7.174878e+01 0
-5.731242e-01 1.040905e+02 0
0.000000e+00 -2.486107e-13 0
0.000000e+00 0.000000e+00 0
1.827160e+00 9.908140e+01 0
1.827160e+00 3.439393e+01 0
0.000000e+00 0.000000e+00 0
0.000000e+00 0.000000e+00 0
0.000000e+00 0.000000e+00 0
0.000000e+00 -5.000000e-05 0
-3.569087e-01 -4.551278e+01 0
1.383277e+00 -9.097068e+01 0
4.030686e+00 -9.149101e+01 0
6.859081e+00 -9.309019e+01 0
9.502849e+00 -9.694307e+01 0
1.017745e+01 -4.988598e+01 0
1.017745e+01 -5.000000e-05 0
0.000000e+00 0.000000e+00 0
0.000000e+00 0.000000e+00 0
0.000000e+00 2.554332e+01 0
-6.108949e+00 6.956485e+01 0
-1.600657e+00 1.012105e+02 0
0.000000e+00 -2.486107e-13 0
0.000000e+00 0.000000e+00 0
1.719200e+00 9.813486e+01 0
1.719200e+00 3.439393e+01 0
0.000000e+00 0.000000e+00 0
0.000000e+00 0.000000e+00 0
0.000000e+00 0.000000e+00 0
0.000000e+00 -5.000000e-05 0
-1.926346e+00 -4.642684e+01 0
5.538852e-01 -9.307301e+01 0
2.861530e+00 -9.387175e+01 0
4.946951e+00 -9.530715e+01 0
6.635386e+00 -9.809955e+01 0
6.765065e+00 -5.001798e+01 0
6.765065e+00 -5.000000e-05 0
0.000000e+00 0.000000e+00 0
-4.983745e-15 5.513530e-14 0
-2.362610e+00 2.601385e+01 0
-5.952212e+00 6.780959e+01 0
-1.660166e+00 9.806804e+01 0
0.000000e+00 -2.386662e-13 0
0.000000e+00 0.000000e+00 0
6.104680e-01 9.734917e+01 0
6.104680e-01 3.439393e+01 0
0.000000e+00 0.000000e+00 0
0.000000e+00 0.000000e+00 0
0.000000e+00 0.000000e+00 0
0.000000e+00 -5.000000e-05 0
-2.277622e+00 -4.800646e+01 0
3.622541e-02 -9.578949e+01 0
1.923749e+00 -9.591736e+01 0
3.453374e+00 -9.689264e+01 0
4.569182e+00 -9.877495e+01 0
4.526833e+00 -5.001664e+01 0
4.526833e+00 -5.000000e-05 0
0.000000e+00 0.000000e+00 0
-4.983745e-15 2.633562e+01 0
-2.362610e+00 5.293414e+01 0
-4.248709e+00 6.629766e+01 0
-9.941286e-01 9.521533e+01 0
0.000000e+00 -2.386662e-13 0
0.000000e+00 0.000000e+00 0
-2.043021e+00 9.751976e+01 0
1.986496e+01 3.439393e+01 0
0.000000e+00 0.000000e+00 0
0.000000e+00 0.000000e+00 0
0.000000e+00 0.000000e+00 0
0.000000e+00 -5.000000e-05 0
-8.479312e-01 -4.873901e+01 0
1.469134e-01 -9.728701e+01 0
1.350610e+00 -9.731479e+01 0
2.386614e+00 -9.797262e+01 0
3.119250e+00 -9.918114e+01 0
3.029102e+00 -4.997531e+01 0
3.029102e+00 -5.000000e-05 0
0.000000e+00 0.000000e+00 0
0.000000e+00 0.000000e+00 0
0.000000e+00 2.554332e+01 0
-2.304746e+00 6.412117e+01 0
-1.721450e-01 9.384849e+01 0
0.000000e+00 -2.287218e-13 0
0.000000e+00 0.000000e+00 0
-2.462844e+00 7.733372e+01 0
1.944514e+01 1.231999e+01 0
0.000000e+00 0.000000e+00 0
0.000000e+00 0.000000e+00 0
0.000000e+00 0.000000e+00 0
0.000000e+00 -5.000000e-05 0
-3.215183e-01 -4.900858e+01 0
1.964879e-01 -9.800443e+01 0
9.478044e-01 -9.817402e+01 0
1.630333e+00 -9.867468e+01 0
2.108262e+00 -9.942231e+01 0
2.015711e+00 -4.992581e+01 0
2.015711e+00 -5.000000e-05 0
0.000000e+00 0.000000e+00 0
0.000000e+00 0.000000e+00 0
0.000000e+00 2.554332e+01 0
-1.193013e+00 6.321067e+01 0
1.834122e-01 9.301010e+01 0
0.000000e+00 -2.287218e-13 0
0.000000e+00 0.000000e+00 0
-6.833730e-01 7.792732e+01 0
-6.833730e-01 1.231999e+01 0
0.000000e+00 0.000000e+00 0
0.000000e+00 0.000000e+00 0
0.000000e+00 0.000000e+00 0
0.000000e+00 -5.000000e-05 0
-4.027564e-01 -4.926600e+01 0
7.575767e-02 -9.857101e+01 0
6.150212e-01 -9.875949e+01 0
1.082332e+00 -9.914187e+01 0
1.399440e+00 -9.956944e+01 0
1.324686e+00 -4.988206e+01 0
1.324686e+00 -5.000000e-05 0
0.000000e+00 0.000000e+00 0
0.000000e+00 0.000000e+00 0
0.000000e+00 2.554332e+01 0
-1.214578e+00 6.285130e+01 0
-6.903244e-02 9.276342e+01 0
0.000000e+00 -2.287218e-13 0
0.000000e+00 0.000000e+00 0
-4.139649e-02 7.802227e+01 0
-4.139649e-02 1.231999e+01 0
0.000000e+00 0.000000e+00 0
0.000000e+00 0.000000e+00 0
0.000000e+00 0.000000e+00 0
0.000000e+00 -5.000000e-05 0
-5.057985e-01 -4.948907e+01 0
-6.088614e-02 -9.902826e+01 0
3.552337e-01 -9.918822e+01 0
6.865100e-01 -9.946504e+01 0
9.006418e-01 -9.966650e+01 0
8.520432e-01 -4.985049e+01 0
8.520432e-01 -5.000000e-05 0
0.000000e+00 0.000000e+00 0
0.000000e+00 0.000000e+00 0
0.000000e+00 2.554332e+01 0
-9.088588e-01 6.221028e+01 0
4.699351e-02 9.194015e+01 0
0.000000e+00 -2.287218e-13 0
0.000000e+00 0.000000e+00 0
1.373054e-01 7.796903e+01 0
1.373054e-01 1.231999e+01 0
0.000000e+00 0.000000e+00 0
0.000000e+00 0.000000e+00 0
0.000000e+00 0.000000e+00 0
0.000000e+00 -5.000000e-05 0
-3.674773e-01 -4.971817e+01 0
-1.073289e-01 -9.944245e+01 0
1.812784e-01 -9.951255e+01 0
4.089141e-01 -9.969141e+01 0
5.499335e-01 -9.973622e+01 0
5.285518e-01 -4.983309e+01 0
5.285518e-01 -5.000000e-05 0
0.000000e+00 0.000000e+00 0
0.000000e+00 0.000000e+00 0
0.000000e+00 0.000000e+00 0
0.000000e+00 3.513192e+01 0
5.556592e-01 9.061867e+01 0
0.000000e+00 -2.386662e-13 0
0.000000e+00 0.000000e+00 0
1.623110e-01 7.788393e+01 0
1.623110e-01 1.231999e+01 0
0.000000e+00 0.000000e+00 0
0.000000e+00 0.000000e+00 0
0.000000e+00 0.000000e+00 0
0.000000e+00 -5.000000e-05 0
-3.356094e-01 -4.975504e+01 0
-1.297306e-01 -9.958503e+01 0
6.885593e-02 -9.970838e+01 0
2.184206e-01 -9.983649e+01 0
3.036332e-01 -9.978704e+01 0
3.138056e-01 -4.982895e+01 0
1.985220e-01 -5.000000e-05 0
0.000000e+00 0.000000e+00 0
0.000000e+00 0.000000e+00 0
0.000000e+00 0.000000e+00 0
0.000000e+00 3.513192e+01 0
8.120817e-01 9.092950e+01 0
0.000000e+00 -2.386662e-13 0
0.000000e+00 0.000000e+00 0
1.391353e-01 7.780549e+01 0
1.391353e-01 1.231999e+01 0
0.000000e+00 0.000000e+00 0
0.000000e+00 0.000000e+00 0
0.000000e+00 0.000000e+00 0
0.000000e+00 -5.000000e-05 0
-2.960253e-01 -4.992482e+01 0
-1.223415e-01 -9.984918e+01 0
5.921013e-03 -9.986334e+01 0
9.252557e-02 -9.992796e+01 0
1.252285e-01 -9.983233e+01 0
1.489523e-01 -4.984329e+01 0
0.000000e+00 0.000000e+00 0
0.000000e+00 0.000000e+00 0
0.000000e+00 0.000000e+00 0
0.000000e+00 0.000000e+00 0
0.000000e+00 3.513192e+01 0
1.189822e+00 9.139853e+01 0
0.000000e+00 -2.386662e-13 0
0.000000e+00 0.000000e+00 0
1.051030e-01 7.774374e+01 0
1.051030e-01 1.231999e+01 0
0.000000e+00 0.000000e+00 0
0.000000e+00 0.000000e+00 0
0.000000e+00 0.000000e+00 0
0.000000e+00 -5.000000e-05 0
-9.805044e-02 -4.992927e+01 0
-6.600191e-02 -9.988849e+01 0
-1.486868e-02 -9.992487e+01 0
2.099815e-02 -9.995670e+01 0
1.547354e-02 -9.984390e+01 0
-4.004174e-02 -4.985280e+01 0
0.000000e+00 0.000000e+00 0
0.000000e+00 0.000000e+00 0
0.000000e+00 0.000000e+00 0
0.000000e+00 0.000000e+00 0
0.000000e+00 3.513192e+01 0
1.685253e+00 9.208964e+01 0
0.000000e+00 -2.386662e-13 0
0.000000e+00 0.000000e+00 0
6.743583e-02 7.769959e+01 0
6.743583e-02 1.231999e+01 0
0.000000e+00 0.000000e+00 0
0.000000e+00 0.000000e+00 0
0.000000e+00 0.000000e+00 0
0.000000e+00 -5.000000e-05 0
-8.767682e-02 -4.995728e+01 0
-4.473783e-02 -9.993317e+01 0
-2.007444e-02 -9.995100e+01 0
-8.267613e-03 -9.995854e+01 0
-2.896713e-02 -9.977083e+01 0
-1.296711e-01 -4.978735e+01 0
-5.596068e-02 -1.109589e-17 0
0.000000e+00 0.000000e+00 0
0.000000e+00 0.000000e+00 0
0.000000e+00 0.000000e+00 0
0.000000e+00 3.513192e+01 0
1.710167e+00 9.307104e+01 0
0.000000e+00 -2.486107e-13 0
0.000000e+00 0.000000e+00 0
2.361709e-02 7.767579e+01 0
2.361709e-02 1.231999e+01 0
0.000000e+00 0.000000e+00 0
0.000000e+00 0.000000e+00 0
0.000000e+00 0.000000e+00 0
0.000000e+00 -5.000000e-05 0
-3.270533e-02 -4.997204e+01 0
-2.773434e-02 -9.995611e+01 0
-1.187590e-02 -9.996162e+01 0
-3.713666e-03 -9.994774e+01 0
-1.806840e-02 -9.973051e+01 0
8.340768e-02 -4.976291e+01 0
8.340768e-02 -2.650000e-03 0
0.000000e+00 0.000000e+00 0
0.000000e+00 0.000000e+00 0
0.000000e+00 0.000000e+00 0
0.000000e+00 3.513192e+01 0
7.304385e-01 9.381394e+01 0
0.000000e+00 -2.486107e-13 0
0.000000e+00 2.644654e-04 0
0.000000e+00 7.767579e+01 0
0.000000e+00 1.231999e+01 0
0.000000e+00 0.000000e+00 0
0.000000e+00 0.000000e+00 0
0.000000e+00 0.000000e+00 0
0.000000e+00 0.000000e+00 0
0.000000e+00 -4.999080e+01 0
-1.011749e-02 -9.998244e+01 0
4.232886e-03 -9.997493e+01 0
2.460969e-02 -9.995230e+01 0
5.649982e-02 -9.986754e+01 0
3.197687e-01 -4.990118e+01 0
3.197687e-01 -2.650000e-03 0
0.000000e+00 0.000000e+00 0
0.000000e+00 0.000000e+00 0
0.000000e+00 0.000000e+00 0
0.000000e+00 0.000000e+00 0
0.000000e+00 5.885470e+01 0
0.000000e+00 -2.486107e-13 0
0.000000e+00 0.000000e+00 0
0.000000e+00 0.000000e+00 0
0.000000e+00 0.000000e+00 0
0.000000e+00 0.000000e+00 0
0.000000e+00 0.000000e+00 0
0.000000e+00 0.000000e+00 0
0.000000e+00 0.000000e+00 0
0.000000e+00 -5.000000e+01 0
0.000000e+00 -9.999841e+01 0
1.435230e-02 -9.999644e+01 0
4.156359e-02 -1.000004e+02 0
9.799955e-02 -1.000279e+02 0
2.563620e-01 -5.002818e+01 0
2.563620e-01 -2.650000e-03 0
0.000000e+00 0.000000e+00 0
0.000000e+00 0.000000e+00 0
0.000000e+00 0.000000e+00 0
0.000000e+00 0.000000e+00 0
0.000000e+00 5.885470e+01 0
0.000000e+00 -2.486107e-13 0
0.000000e+00 0.000000e+00 0
0.000000e+00 0.000000e+00 0
0.000000e+00 0.000000e+00 0
0.000000e+00 0.000000e+00 0
0.000000e+00 0.000000e+00 0
0.000000e+00 0.000000e+00 0
0.000000e+00 0.000000e+00 0
0.000000e+00 -5.000000e+01 0
0.000000e+00 -1.000063e+02 0
1.198486e-02 -1.000170e+02 0
2.859530e-02 -1.000366e+02 0
5.102917e-02 -1.000840e+02 0
5.748458e-02 -5.006074e+01 0
7.596171e-02 -2.650000e-03 0
0.000000e+00 0.000000e+00 0
0.000000e+00 0.000000e+00 0
0.000000e+00 0.000000e+00 0
0.000000e+00 0.000000e+00 0
0.000000e+00 5.885470e+01 0
0.000000e+00 -2.486107e-13 0
0.000000e+00 0.000000e+00 0
0.000000e+00 0.000000e+00 0
0.000000e+00 0.000000e+00 0
0.000000e+00 0.000000e+00 0
0.000000e+00 0.000000e+00 0
0.000000e+00 0.000000e+00 0
0.000000e+00 0.000000e+00 0
0.000000e+00 -5.000000e+01 0
0.000000e+00 -1.000106e+02 0
5.323817e-03 -1.000253e+02 0
9.299178e-03 -1.000397e+02 0
4.612010e-03 -1.000570e+02 0
-4.084363e-02 -5.003203e+01 0
0.000000e+00 0.000000e+00 0
0.000000e+00 0.000000e+00 0
0.000000e+00 0.000000e+00 0
0.000000e+00 0.000000e+00 0
0.000000e+00 0.000000e+00 0
0.000000e+00 5.885470e+01 0
0.000000e+00 -2.486107e-13 0
0.000000e+00 0.000000e+00 0
0.000000e+00 0.000000e+00 0
0.000000e+00 0.000000e+00 0
0.000000e+00 0.000000e+00 0
0.000000e+00 0.000000e+00 0
0.000000e+00 0.000000e+00 0
0.000000e+00 0.000000e+00 0
0.000000e+00 -5.000000e+01 0
0.000000e+00 -1.000117e+02 0
1.375354e-04 -1.000264e+02 0
-1.678134e-03 -1.000359e+02 0
-8.905471e-03 -1.000334e+02 0
-2.773633e-02 -5.001229e+01 0
0.000000e+00 0.000000e+00 0
0.000000e+00 0.000000e+00 0
0.000000e+00 0.000000e+00 0
0.000000e+00 0.000000e+00 0
0.000000e+00 0.000000e+00 0
0.000000e+00 5.885470e+01 0
0.000000e+00 -2.486107e-13 0
0.000000e+00 0.000000e+00 0
0.000000e+00 0.000000e+00 0
0.000000e+00 0.000000e+00 0
0.000000e+00 0.000000e+00 0
0.000000e+00 0.000000e+00 0
0.000000e+00 0.000000e+00 0
0.000000e+00 0.000000e+00 0
0.000000e+00 -5.000000e+01 0
0.000000e+00 -1.000107e+02 0
-3.094216e-03 -1.000237e+02 0
-7.613335e-03 -1.000306e+02 0
-1.495564e-02 -1.000308e+02 0
-1.266189e-02 -5.001306e+01 0
0.000000e+00 0.000000e+00 0
0.000000e+00 0.000000e+00 0
0.000000e+00 0.000000e+00 0
0.000000e+00 0.000000e+00 0
0.000000e+00 0.000000e+00 0
0.000000e+00 5.885470e+01 0
0.000000e+00 -2.486107e-13 0
0.000000e+00 0.000000e+00 0
0.000000e+00 0.000000e+00 0
0.000000e+00 0.000000e+00 0
0.000000e+00 0.000000e+00 0
0.000000e+00 0.000000e+00 0
0.000000e+00 0.000000e+00 0
0.000000e+00 0.000000e+00 0
0.000000e+00 -5.000000e+01 0
0.000000e+00 -1.000085e+02 0
-4.891249e-03 -1.000187e+02 0
-1.089356e-02 -1.000239e+02 0
-1.893736e-02 -1.000284e+02 0
-1.509832e-02 -5.001460e+01 0
0.000000e+00 0.000000e+00 0
0.000000e+00 0.000000e+00 0
0.000000e+00 0.000000e+00 0
0.000000e+00 0.000000e+00 0
0.000000e+00 0.000000e+00 0
0.000000e+00 5.885470e+01 0
0.000000e+00 -2.486107e-13 0
0.000000e+00 0.000000e+00 0
0.000000e+00 0.000000e+00 0
0.000000e+00 0.000000e+00 0
0.000000e+00 0.000000e+00 0
0.000000e+00 0.000000e+00 0
0.000000e+00 0.000000e+00 0
0.000000e+00 0.000000e+00 0
0.000000e+00 -5.000000e+01 0
0.000000e+00 -1.000057e+02 0
-5.436218e-03 -1.000126e+02 0
-1.187570e-02 -1.000165e+02 0
-2.005720e-02 -1.000265e+02 0
-1.880241e-02 -5.001693e+01 0
0.000000e+00 0.000000e+00 0
0.000000e+00 0.000000e+00 0
0.000000e+00 0.000000e+00 0
0.000000e+00 0.000000e+00 0
0.000000e+00 0.000000e+00 0
0.000000e+00 5.885470e+01 0
0.000000e+00 -2.486107e-13 0
0.000000e+00 0.000000e+00 0
0.000000e+00 0.000000e+00 0
0.000000e+00 0.000000e+00 0
0.000000e+00 0.000000e+00 0
0.000000e+00 0.000000e+00 0
0.000000e+00 0.000000e+00 0
0.000000e+00 0.000000e+00 0
0.000000e+00 -5.000000e+01 0
0.000000e+00 -1.000030e+02 0
-4.710345e-03 -1.000066e+02 0
-1.043636e-02 -1.000092e+02 0
-1.796982e-02 -1.000214e+02 0
-3.476834e-02 -5.001587e+01 0
0.000000e+00 0.000000e+00 0
0.000000e+00 0.000000e+00 0
0.000000e+00 0.000000e+00 0
0.000000e+00 0.000000e+00 0
0.000000e+00 0.000000e+00 0
0.000000e+00 5.885470e+01 0
0.000000e+00 -2.486107e-13 0
0.000000e+00 0.000000e+00 0
0.000000e+00 0.000000e+00 0
0.000000e+00 0.000000e+00 0
0.000000e+00 0.000000e+00 0
0.000000e+00 0.000000e+00 0
0.000000e+00 0.000000e+00 0
0.000000e+00 0.000000e+00 0
0.000000e+00 -5.000000e+01 0
0.000000e+00 -1.000009e+02 0
-2.756417e-03 -1.000020e+02 0
-6.395368e-03 -1.000031e+02 0
-1.186510e-02 -1.000020e+02 0
-2.761339e-02 -5.000000e+01 0
0.000000e+00 0.000000e+00 0
0.000000e+00 0.000000e+00 0
0.000000e+00 0.000000e+00 0
0.000000e+00 0.000000e+00 0
0.000000e+00 0.000000e+00 0
0.000000e+00 0.000000e+00 0
0.000000e+00 0.000000e+00 0
0.000000e+00 0.000000e+00 0
0.000000e+00 0.000000e+00 0
0.000000e+00 0.000000e+00 0
0.000000e+00 0.000000e+00 0
0.000000e+00 0.000000e+00 0
0.000000e+00 0.000000e+00 0
0.000000e+00 0.000000e+00 0
0.000000e+00 -5.000000e+01 0
0.000000e+00 -1.000000e+02 0
-6.221336e-18 -1.000000e+02 0
-1.547747e-17 -1.000000e+02 0
-3.195661e-17 -1.000000e+02 0
-3.216886e-17 -5.000000e+01 0
0.000000e+00 0.000000e+00 0
0.000000e+00 0.000000e+00 0
0.000000e+00 0.000000e+00 0
0.000000e+00 0.000000e+00 0
0.000000e+00 0.000000e+00 0
0.000000e+00 0.000000e+00 0
0.000000e+00 0.000000e+00 0
</DataArray>
<DataArray Name="Type and Neighbourhood" type="Float64" format="ascii" NumberOfComponents="3">
0.000000e+00 0.000000e+00 0
0.000000e+00 0.000000e+00 0
0.000000e+00 0.000000e+00 0
1.100000e+01 1.000000e+00 0
1.100000e+01 1.000000e+00 0
0.000000e+00 0.000000e+00 0
0.000000e+00 0.000000e+00 0
0.000000e+00 0.000000e+00 0
0.000000e+00 0.000000e+00 0
0.000000e+00 0.000000e+00 0
0.000000e+00 0.000000e+00 0
0.000000e+00 0.000000e+00 0