<?xml version="1.0"?>
<VTKFile type="StructuredGrid">
<StructuredGrid WholeExtent="0 19 0 33 0 0 ">
<Piece Extent="0 19 0 33 0 0 ">
<Points>
<DataArray type="Float64" format="ascii" NumberOfComponents="3">
0.000000e+00 0.000000e+00 0.000000e+00
1.052632e-01 0.000000e+00 0.000000e+00
2.105263e-01 0.000000e+00 0.000000e+00
3.157895e-01 0.000000e+00 0.000000e+00
4.210526e-01 0.000000e+00 0.000000e+00
5.263158e-01 0.000000e+00 0.000000e+00
6.315789e-01 0.000000e+00 0.000000e+00
7.368421e-01 0.000000e+00 0.000000e+00
8.421053e-01 0.000000e+00 0.000000e+00
9.473684e-01 0.000000e+00 0.000000e+00
1.052632e+00 0.000000e+00 0.000000e+00
1.157895e+00 0.000000e+00 0.000000e+00
1.263158e+00 0.000000e+00 0.000000e+00
1.368421e+00 0.000000e+00 0.000000e+00
1.473684e+00 0.000000e+00 0.000000e+00
1.578947e+00 0.000000e+00 0.000000e+00
1.684211e+00 0.000000e+00 0.000000e+00
1.789474e+00 0.000000e+00 0.000000e+00
1.894737e+00 0.000000e+00 0.000000e+00
2.000000e+00 0.000000e+00 0.000000e+00
0.000000e+00 1.060606e-01 0.000000e+00
1.052632e-01 1.060606e-01 0.000000e+00
2.105263e-01 1.060606e-01 0.000000e+00
3.157895e-01 1.060606e-01 0.000000e+00
4.210526e-01 1.060606e-01 0.000000e+00
5.263158e-01 1.060606e-01 0.000000e+00
6.315789e-01 1.060606e-01 0.000000e+00
7.368421e-01 1.060606e-01 0.000000e+00
8.421053e-01 1.060606e-01 0.000000e+00
9.473684e-01 1.060606e-01 0.000000e+00
1.052632e+00 1.060606e-01 0.000000e+00
1.157895e+00 1.060606e-01 0.000000e+00
1.263158e+00 1.060606e-01 0.000000e+00
1.368421e+00 1.060606e-01 0.000000e+00
1.473684e+00 1.060606e-01 0.000000e+00
1.578947e+00 1.060606e-01 0.000000e+00
1.684211e+00 1.060606e-01 0.000000e+00
1.789474e+00 1.060606e-01 0.000000e+00
1.894737e+00 1.060606e-01 0.000000e+00
2.000000e+00 1.060606e-01 0.000000e+00
0.000000e+00 2.121212e-01 0.000000e+00
1.052632e-01 2.121212e-01 0.000000e+00
2.105263e-01 2.121212e-01 0.000000e+00
3.157895e-01 2.121212e-01 0.000000e+00
4.210526e-01 2.121212e-01 0.000000e+00
5.263158e-01 2.121212e-01 0.000000e+00
6.315789e-01 2.121212e-01 0.000000e+00
7.368421e-01 2.121212e-01 0.000000e+00
8.421053e-01 2.121212e-01 0.000000e+00
9.473684e-01 2.121212e-01 0.000000e+00
1.052632e+00 2.121212e-01 0.000000e+00
1.157895e+00 2.121212e-01 0.000000e+00
1.263158e+00 2.121212e-01 0.000000e+00
1.368421e+00 2.121212e-01 0.000000e+00
1.473684e+00 2.121212e-01 0.000000e+00
1.578947e+00 2.121212e-01 0.000000e+00
1.684211e+00 2.121212e-01 0.000000e+00
1.789474e+00 2.121212e-01 0.000000e+00
1.894737e+00 2.121212e-01 0.000000e+00
2.000000e+00 2.121212e-01 0.000000e+00
0.000000e+00 3.181818e-01 0.000000e+00
1.052632e-01 3.181818e-01 0.000000e+00
2.105263e-01 3.181818e-01 0.000000e+00
3.157895e-01 3.181818e-01 0.000000e+00
4.210526e-01 3.181818e-01 0.000000e+00
5.263158e-01 3.181818e-01 0.000000e+00
6.315789e-01 3.181818e-01 0.000000e+00
7.368421e-01 3.181818e-01 0.000000e+00
8.421053e-01 3.181818e-01 0.000000e+00
9.473684e-01 3.181818e-01 0.000000e+00
1.052632e+00 3.181818e-01 0.000000e+00
1.157895e+00 3.181818e-01 0.000000e+00
1.263158e+00 3.181818e-01 0.000000e+00
1.368421e+00 3.181818e-01 0.000000e+00
1.473684e+00 3.181818e-01 0.000000e+00
1.578947e+00 3.181818e-01 0.000000e+00
1.684211e+00 3.181818e-01 0.000000e+00
1.789474e+00 3.181818e-01 0.000000e+00
1.894737e+00 3.181818e-01 0.000000e+00
2.000000e+00 3.181818e-01 0.000000e+00
0.000000e+00 4.242424e-01 0.000000e+00
1.052632e-01 4.242424e-01 0.000000e+00
2.105263e-01 4.242424e-01 0.000000e+00
3.157895e-01 4.242424e-01 0.000000e+00
4.210526e-01 4.242424e-01 0.000000e+00
5.263158e-01 4.242424e-01 0.000000e+00
6.315789e-01 4.242424e-01 0.000000e+00
7.368421e-01 4.242424e-01 0.000000e+00
8.421053e-01 4.242424e-01 0.000000e+00
9.473684e-01 4.242424e-01 0.000000e+00
1.052632e+00 4.242424e-01 0.000000e+00
1.157895e+00 4.242424e-01 0.000000e+00
1.263158e+00 4.242424e-01 0.000000e+00
1.368421e+00 4.242424e-01 0.000000e+00
1.473684e+00 4.242424e-01 0.000000e+00
1.578947e+00 4.242424e-01 0.000000e+00
1.684211e+00 4.242424e-01 0.000000e+00
1.789474e+00 4.242424e-01 0.000000e+00
1.894737e+00 4.242424e-01 0.000000e+00
2.000000e+00 4.242424e-01 0.000000e+00
0.000000e+00 5.303030e-01 0.000000e+00
1.052632e-01 5.303030e-01 0.000000e+00
2.105263e-01 5.303030e-01 0.000000e+00
3.157895e-01 5.303030e-01 0.000000e+00
4.210526e-01 5.303030e-01 0.000000e+00
5.263158e-01 5.303030e-01 0.000000e+00
6.315789e-01 5.303030e-01 0.000000e+00
7.368421e-01 5.303030e-01 0.000000e+00
8.421053e-01 5.303030e-01 0.000000e+00
9.473684e-01 5.303030e-01 0.000000e+00
1.052632e+00 5.303030e-01 0.000000e+00
1.157895e+00 5.303030e-01 0.000000e+00
1.263158e+00 5.303030e-01 0.000000e+00
1.368421e+00 5.303030e-01 0.000000e+00
1.473684e+00 5.303030e-01 0.000000e+00
1.578947e+00 5.303030e-01 0.000000e+00
1.684211e+00 5.303030e-01 0.000000e+00
1.789474e+00 5.303030e-01 0.000000e+00
1.894737e+00 5.303030e-01 0.000000e+00
2.000000e+00 5.303030e-01 0.000000e+00
0.000000e+00 6.363636e-01 0.000000e+00
1.052632e-01 6.363636e-01 0.000000e+00
2.105263e-01 6.363636e-01 0.000000e+00
3.157895e-01 6.363636e-01 0.000000e+00
4.210526e-01 6.363636e-01 0.000000e+00
5.263158e-01 6.363636e-01 0.000000e+00
6.315789e-01 6.363636e-01 0.000000e+00
7.368421e-01 6.363636e-01 0.000000e+00
8.421053e-01 6.363636e-01 0.000000e+00
9.473684e-01 6.363636e-01 0.000000e+00
1.052632e+00 6.363636e-01 0.000000e+00
1.157895e+00 6.363636e-01 0.000000e+00
1.263158e+00 6.363636e-01 0.000000e+00
1.368421e+00 6.363636e-01 0.000000e+00
1.473684e+00 6.363636e-01 0.000000e+00
1.578947e+00 6.363636e-01 0.000000e+00
1.684211e+00 6.363636e-01 0.000000e+00
1.789474e+00 6.363636e-01 0.000000e+00
1.894737e+00 6.363636e-01 0.000000e+00
2.000000e+00 6.363636e-01 0.000000e+00
0.000000e+00 7.424242e-01 0.000000e+00
1.052632e-01 7.424242e-01 0.000000e+00
2.105263e-01 7.424242e-01 0.000000e+00
3.157895e-01 7.424242e-01 0.000000e+00
4.210526e-01 7.424242e-01 0.000000e+00
5.263158e-01 7.424242e-01 0.000000e+00
6.315789e-01 7.424242e-01 0.000000e+00
7.368421e-01 7.424242e-01 0.000000e+00
8.421053e-01 7.424242e-01 0.000000e+00
9.473684e-01 7.424242e-01 0.000000e+00
1.052632e+00 7.424242e-01 0.000000e+00
1.157895e+00 7.424242e-01 0.000000e+00
1.263158e+00 7.424242e-01 0.000000e+00
1.368421e+00 7.424242e-01 0.000000e+00
1.473684e+00 7.424242e-01 0.000000e+00
1.578947e+00 7.424242e-01 0.000000e+00
1.684211e+00 7.424242e-01 0.000000e+00
1.789474e+00 7.424242e-01 0.000000e+00
1.894737e+00 7.424242e-01 0.000000e+00
2.000000e+00 7.424242e-01 0.000000e+00
0.000000e+00 8.484848e-01 0.000000e+00
1.052632e-01 8.484848e-01 0.000000e+00
2.105263e-01 8.484848e-01 0.000000e+00
3.157895e-01 8.484848e-01 0.000000e+00
4.210526e-01 8.484848e-01 0.000000e+00
5.263158e-01 8.484848e-01 0.000000e+00
6.315789e-01 8.484848e-01 0.000000e+00
7.368421e-01 8.484848e-01 0.000000e+00
8.421053e-01 8.484848e-01 0.000000e+00
9.473684e-01 8.484848e-01 0.000000e+00
1.052632e+00 8.484848e-01 0.000000e+00
1.157895e+00 8.484848e-01 0.000000e+00
1.263158e+00 8.484848e-01 0.000000e+00
1.368421e+00 8.484848e-01 0.000000e+00
1.473684e+00 8.484848e-01 0.000000e+00
1.578947e+00 8.484848e-01 0.000000e+00
1.684211e+00 8.484848e-01 0.000000e+00
1.789474e+00 8.484848e-01 0.000000e+00
1.894737e+00 8.484848e-01 0.000000e+00
2.000000e+00 8.484848e-01 0.000000e+00
0.000000e+00 9.545455e-01 0.000000e+00
1.052632e-01 9.545455e-01 0.000000e+00
2.105263e-01 9.545455e-01 0.000000e+00
3.157895e-01 9.545455e-01 0.000000e+00
4.210526e-01 9.545455e-01 0.000000e+00
5.263158e-01 9.545455e-01 0.000000e+00
6.315789e-01 9.545455e-01 0.000000e+00
7.368421e-01 9.545455e-01 0.000000e+00
8.421053e-01 9.545455e-01 0.000000e+00
9.473684e-01 9.545455e-01 0.000000e+00
1.052632e+00 9.545455e-01 0.000000e+00
1.157895e+00 9.545455e-01 0.000000e+00
1.263158e+00 9.545455e-01 0.000000e+00
1.368421e+00 9.545455e-01 0.000000e+00
1.473684e+00 9.545455e-01 0.000000e+00
1.578947e+00 9.545455e-01 0.000000e+00
1.684211e+00 9.545455e-01 0.000000e+00
1.789474e+00 9.545455e-01 0.000000e+00
1.894737e+00 9.545455e-01 0.000000e+00
2.000000e+00 9.545455e-01 0.000000e+00
0.000000e+00 1.060606e+00 0.000000e+00
1.052632e-01 1.060606e+00 0.000000e+00
2.105263e-01 1.060606e+00 0.000000e+00
3.157895e-01 1.060606e+00 0.000000e+00
4.210526e-01 1.060606e+00 0.000000e+00
5.263158e-01 1.060606e+00 0.000000e+00
6.315789e-01 1.060606e+00 0.000000e+00
7.368421e-01 1.060606e+00 0.000000e+00
8.421053e-01 1.060606e+00 0.000000e+00
9.473684e-01 1.060606e+00 0.000000e+00
1.052632e+00 1.060606e+00 0.000000e+00
1.157895e+00 1.060606e+00 0.000000e+00
1.263158e+00 1.060606e+00 0.000000e+00
1.368421e+00 1.060606e+00 0.000000e+00
1.473684e+00 1.060606e+00 0.000000e+00
1.578947e+00 1.060606e+00 0.000000e+00
1.684211e+00 1.060606e+00 0.000000e+00
1.789474e+00 1.060606e+00 0.000000e+00
1.894737e+00 1.060606e+00 0.000000e+00
2.000000e+00 1.060606e+00 0.000000e+00
0.000000e+00 1.166667e+00 0.000000e+00
1.052632e-01 1.166667e+00 0.000000e+00
2.105263e-01 1.166667e+00 0.000000e+00
3.157895e-01 1.166667e+00 0.000000e+00
4.210526e-01 1.166667e+00 0.000000e+00
5.263158e-01 1.166667e+00 0.000000e+00
6.315789e-01 1.166667e+00 0.000000e+00
7.368421e-01 1.166667e+00 0.000000e+00
8.421053e-01 1.166667e+00 0.000000e+00
9.473684e-01 1.166667e+00 0.000000e+00
1.052632e+00 1.166667e+00 0.000000e+00
1.157895e+00 1.166667e+00 0.000000e+00
1.263158e+00 1.166667e+00 0.000000e+00
1.368421e+00 1.166667e+00 0.000000e+00
1.473684e+00 1.166667e+00 0.000000e+00
1.578947e+00 1.166667e+00 0.000000e+00
1.684211e+00 1.166667e+00 0.000000e+00
1.789474e+00 1.166667e+00 0.000000e+00
1.894737e+00 1.166667e+00 0.000000e+00
2.000000e+00 1.166667e+00 0.000000e+00
0.000000e+00 1.272727e+00 0.000000e+00
1.052632e-01 1.272727e+00 0.000000e+00
2.105263e-01 1.272727e+00 0.000000e+00
3.157895e-01 1.272727e+00 0.000000e+00
4.210526e-01 1.272727e+00 0.000000e+00
5.263158e-01 1.272727e+00 0.000000e+00
6.315789e-01 1.272727e+00 0.000000e+00
7.368421e-01 1.272727e+00 0.000000e+00
8.421053e-01 1.272727e+00 0.000000e+00
9.473684e-01 1.272727e+00 0.000000e+00
1.052632e+00 1.272727e+00 0.000000e+00
[...]
<PointData>
<DataArray Name="Velocity" type="Float64" format="ascii" NumberOfComponents="3">
0.000000e+00 0.000000e+00 0
0.000000e+00 0.000000e+00 0
0.000000e+00 0.000000e+00 0
0.000000e+00 0.000000e+00 0
0.000000e+00 0.000000e+00 0
0.000000e+00 0.000000e+00 0
0.000000e+00 0.000000e+00 0
0.000000e+00 0.000000e+00 0
0.000000e+00 0.000000e+00 0
0.000000e+00 0.000000e+00 0
0.000000e+00 0.000000e+00 0
0.000000e+00 0.000000e+00 0
0.000000e+00 0.000000e+00 0
0.000000e+00 0.000000e+00 0
0.000000e+00 0.000000e+00 0
0.000000e+00 0.000000e+00 0
0.000000e+00 0.000000e+00 0
0.000000e+00 0.000000e+00 0
0.000000e+00 0.000000e+00 0
0.000000e+00 0.000000e+00 0
0.000000e+00 0.000000e+00 0
0.000000e+00 0.000000e+00 0
0.000000e+00 0.000000e+00 0
0.000000e+00 0.000000e+00 0
0.000000e+00 0.000000e+00 0
0.000000e+00 0.000000e+00 0
0.000000e+00 0.000000e+00 0
0.000000e+00 0.000000e+00 0
0.000000e+00 0.000000e+00 0
0.000000e+00 0.000000e+00 0
0.000000e+00 0.000000e+00 0
0.000000e+00 0.000000e+00 0
0.000000e+00 0.000000e+00 0
0.000000e+00 0.000000e+00 0
0.000000e+00 0.000000e+00 0
0.000000e+00 0.000000e+00 0
0.000000e+00 0.000000e+00 0
0.000000e+00 0.000000e+00 0
0.000000e+00 0.000000e+00 0
0.000000e+00 0.000000e+00 0
0.000000e+00 0.000000e+00 0
0.000000e+00 0.000000e+00 0
0.000000e+00 0.000000e+00 0
0.000000e+00 0.000000e+00 0
0.000000e+00 0.000000e+00 0
0.000000e+00 0.000000e+00 0
0.000000e+00 0.000000e+00 0
0.000000e+00 0.000000e+00 0
0.000000e+00 0.000000e+00 0
0.000000e+00 0.000000e+00 0
0.000000e+00 0.000000e+00 0
0.000000e+00 0.000000e+00 0
0.000000e+00 0.000000e+00 0
0.000000e+00 0.000000e+00 0
0.000000e+00 0.000000e+00 0
0.000000e+00 0.000000e+00 0
0.000000e+00 0.000000e+00 0
0.000000e+00 0.000000e+00 0
0.000000e+00 0.000000e+00 0
0.000000e+00 0.000000e+00 0
0.000000e+00 0.000000e+00 0
0.000000e+00 0.000000e+00 0
0.000000e+00 0.000000e+00 0
0.000000e+00 0.000000e+00 0
0.000000e+00 0.000000e+00 0
0.000000e+00 0.000000e+00 0
0.000000e+00 0.000000e+00 0
0.000000e+00 0.000000e+00 0
0.000000e+00 0.000000e+00 0
0.000000e+00 0.000000e+00 0
0.000000e+00 0.000000e+00 0
0.000000e+00 0.000000e+00 0
0.000000e+00 0.000000e+00 0
0.000000e+00 0.000000e+00 0
0.000000e+00 0.000000e+00 0
0.000000e+00 0.000000e+00 0
0.000000e+00 0.000000e+00 0
0.000000e+00 0.000000e+00 0
0.000000e+00 0.000000e+00 0
0.000000e+00 0.000000e+00 0
0.000000e+00 0.000000e+00 0
0.000000e+00 0.000000e+00 0
0.000000e+00 0.000000e+00 0
0.000000e+00 0.000000e+00 0
0.000000e+00 0.000000e+00 0
0.000000e+00 0.000000e+00 0
0.000000e+00 0.000000e+00 0
0.000000e+00 0.000000e+00 0
0.000000e+00 0.000000e+00 0
0.000000e+00 0.000000e+00 0
0.000000e+00 0.000000e+00 0
0.000000e+00 0.000000e+00 0
0.000000e+00 0.000000e+00 0
0.000000e+00 0.000000e+00 0
0.000000e+00 0.000000e+00 0
0.000000e+00 0.000000e+00 0
0.000000e+00 0.000000e+00 0
0.000000e+00 0.000000e+00 0
0.000000e+00 0.000000e+00 0
0.000000e+00 0.000000e+00 0
0.000000e+00 0.000000e+00 0
0.000000e+00 0.000000e+00 0
0.000000e+00 0.000000e+00 0
0.000000e+00 0.000000e+00 0
0.000000e+00 0.000000e+00 0
0.000000e+00 0.000000e+00 0
0.000000e+00 0.000000e+00 0
0.000000e+00 0.000000e+00 0
0.000000e+00 0.000000e+00 0
0.000000e+00 0.000000e+00 0
0.000000e+00 0.000000e+00 0
0.000000e+00 0.000000e+00 0
0.000000e+00 0.000000e+00 0
0.000000e+00 0.000000e+00 0
0.000000e+00 0.000000e+00 0
0.000000e+00 0.000000e+00 0
0.000000e+00 0.000000e+00 0
0.000000e+00 0.000000e+00 0
0.000000e+00 0.000000e+00 0
0.000000e+00 0.000000e+00 0
0.000000e+00 0.000000e+00 0
0.000000e+00 0.000000e+00 0
0.000000e+00 0.000000e+00 0
0.000000e+00 0.000000e+00 0
0.000000e+00 0.000000e+00 0
0.000000e+00 0.000000e+00 0
0.000000e+00 0.000000e+00 0
0.000000e+00 0.000000e+00 0
0.000000e+00 0.000000e+00 0
0.000000e+00 0.000000e+00 0
0.000000e+00 0.000000e+00 0
0.000000e+00 0.000000e+00 0
0.000000e+00 0.000000e+00 0
0.000000e+00 0.000000e+00 0
0.000000e+00 0.000000e+00 0
0.000000e+00 0.000000e+00 0
0.000000e+00 0.000000e+00 0
0.000000e+00 0.000000e+00 0
0.000000e+00 0.000000e+00 0
0.000000e+00 0.000000e+00 0
0.000000e+00 0.000000e+00 0
0.000000e+00 0.000000e+00 0
0.000000e+00 0.000000e+00 0
0.000000e+00 0.000000e+00 0
0.000000e+00 0.000000e+00 0
0.000000e+00 0.000000e+00 0
0.000000e+00 0.000000e+00 0
0.000000e+00 0.000000e+00 0
0.000000e+00 0.000000e+00 0
0.000000e+00 0.000000e+00 0
0.000000e+00 0.000000e+00 0
0.000000e+00 0.000000e+00 0
0.000000e+00 0.000000e+00 0
0.000000e+00 0.000000e+00 0
0.000000e+00 0.000000e+00 0
0.000000e+00 0.000000e+00 0
0.000000e+00 0.000000e+00 0
0.000000e+00 0.000000e+00 0
0.000000e+00 0.000000e+00 0
0.000000e+00 0.000000e+00 0
0.000000e+00 0.000000e+00 0
0.000000e+00 0.000000e+00 0
0.000000e+00 0.000000e+00 0
0.000000e+00 0.000000e+00 0
0.000000e+00 0.000000e+00 0
0.000000e+00 0.000000e+00 0
0.000000e+00 0.000000e+00 0
0.000000e+00 0.000000e+00 0
0.000000e+00 0.000000e+00 0
0.000000e+00 0.000000e+00 0
0.000000e+00 0.000000e+00 0
0.000000e+00 0.000000e+00 0
0.000000e+00 0.000000e+00 0
0.000000e+00 0.000000e+00 0
0.000000e+00 0.000000e+00 0
0.000000e+00 0.000000e+00 0
0.000000e+00 0.000000e+00 0
0.000000e+00 0.000000e+00 0
0.000000e+00 0.000000e+00 0
0.000000e+00 0.000000e+00 0
0.000000e+00 0.000000e+00 0
0.000000e+00 0.000000e+00 0
0.000000e+00 0.000000e+00 0
0.000000e+00 0.000000e+00 0
0.000000e+00 0.000000e+00 0
0.000000e+00 0.000000e+00 0
0.000000e+00 0.000000e+00 0
0.000000e+00 0.000000e+00 0
0.000000e+00 0.000000e+00 0
0.000000e+00 0.000000e+00 0
0.000000e+00 0.000000e+00 0
0.000000e+00 0.000000e+00 0
0.000000e+00 0.000000e+00 0
0.000000e+00 0.000000e+00 0
0.000000e+00 0.000000e+00 0
0.000000e+00 0.000000e+00 0
0.000000e+00 0.000000e+00 0
0.000000e+00 0.000000e+00 0
0.000000e+00 0.000000e+00 0
0.000000e+00 0.000000e+00 0
0.000000e+00 0.000000e+00 0
0.000000e+00 0.000000e+00 0
0.000000e+00 0.000000e+00 0
0.000000e+00 0.000000e+00 0
0.000000e+00 0.000000e+00 0
0.000000e+00 0.000000e+00 0
0.000000e+00 0.000000e+00 0
0.000000e+00 0.000000e+00 0
0.000000e+00 0.000000e+00 0
0.000000e+00 0.000000e+00 0
0.000000e+00 0.000000e+00 0
0.000000e+00 0.000000e+00 0
0.000000e+00 0.000000e+00 0
0.000000e+00 0.000000e+00 0
0.000000e+00 0.000000e+00 0
0.000000e+00 0.000000e+00 0
0.000000e+00 0.000000e+00 0
0.000000e+00 0.000000e+00 0
0.000000e+00 0.000000e+00 0
0.000000e+00 0.000000e+00 0
0.000000e+00 0.000000e+00 0
0.000000e+00 0.000000e+00 0
0.000000e+00 0.000000e+00 0
0.000000e+00 0.000000e+00 0
0.000000e+00 0.000000e+00 0
0.000000e+00 0.000000e+00 0
0.000000e+00 0.000000e+00 0
0.000000e+00 0.000000e+00 0
0.000000e+00 0.000000e+00 0
0.000000e+00 0.000000e+00 0
0.000000e+00 0.000000e+00 0
0.000000e+00 0.000000e+00 0
0.000000e+00 0.000000e+00 0
0.000000e+00 0.000000e+00 0
0.000000e+00 0.000000e+00 0
0.000000e+00 0.000000e+00 0
0.000000e+00 0.000000e+00 0
0.000000e+00 0.000000e+00 0
0.000000e+00 0.000000e+00 0
0.000000e+00 0.000000e+00 0
0.000000e+00 0.000000e+00 0
0.000000e+00 0.000000e+00 0
0.000000e+00 0.000000e+00 0
0.000000e+00 0.000000e+00 0
0.000000e+00 0.000000e+00 0
0.000000e+00 0.000000e+00 0
0.000000e+00 0.000000e+00 0
0.000000e+00 0.000000e+00 0
0.000000e+00 0.000000e+00 0
0.000000e+00 0.000000e+00 0
0.000000e+00 0.000000e+00 0
0.000000e+00 0.000000e+00 0
0.000000e+00 0.000000e+00 0
0.000000e+00 0.000000e+00 0
0.000000e+00 0.000000e+00 0
0.000000e+00 0.000000e+00 0
0.000000e+00 0.000000e+00 0
0.000000e+00 0.000000e+00 0
0.000000e+00 0.000000e+00 0
0.000000e+00 0.000000e+00 0
0.000000e+00 0.000000e+00 0
0.000000e+00 0.000000e+00 0
0.000000e+00 0.000000e+00 0
0.000000e+00 0.000000e+00 0
0.000000e+00 0.000000e+00 0
0.000000e+00 0.000000e+00 0
0.000000e+00 0.000000e+00 0
0.000000e+00 0.000000e+00 0
0.000000e+00 0.000000e+00 0
0.000000e+00 0.000000e+00 0
0.000000e+00 0.000000e+00 0
0.000000e+00 0.000000e+00 0
0.000000e+00 0.000000e+00 0
0.000000e+00 0.000000e+00 0
0.000000e+00 0.000000e+00 0
0.000000e+00 0.000000e+00 0
0.000000e+00 0.000000e+00 0
0.000000e+00 0.000000e+00 0
0.000000e+00 0.000000e+00 0
0.000000e+00 0.000000e+00 0
0.000000e+00 0.000000e+00 0
0.000000e+00 0.000000e+00 0
0.000000e+00 0.000000e+00 0
0.000000e+00 0.000000e+00 0
0.000000e+00 0.000000e+00 0
0.000000e+00 0.000000e+00 0
0.000000e+00 0.000000e+00 0
0.000000e+00 0.000000e+00 0
0.000000e+00 0.000000e+00 0
0.000000e+00 0.000000e+00 0
0.000000e+00 0.000000e+00 0
0.000000e+00 0.000000e+00 0
0.000000e+00 0.000000e+00 0
0.000000e+00 0.000000e+00 0
0.000000e+00 0.000000e+00 0
0.000000e+00 0.000000e+00 0
0.000000e+00 0.000000e+00 0
0.000000e+00 0.000000e+00 0
0.000000e+00 0.000000e+00 0
0.000000e+00 0.000000e+00 0
0.000000e+00 0.000000e+00 0
0.000000e+00 0.000000e+00 0
0.000000e+00 0.000000e+00 0
0.000000e+00 0.000000e+00 0
0.000000e+00 0.000000e+00 0
0.000000e+00 0.000000e+00 0
0.000000e+00 0.000000e+00 0
0.000000e+00 0.000000e+00 0
0.000000e+00 0.000000e+00 0
0.000000e+00 0.000000e+00 0
0.000000e+00 0.000000e+00 0
0.000000e+00 0.000000e+00 0
0.000000e+00 0.000000e+00 0
0.000000e+00 0.000000e+00 0
0.000000e+00 0.000000e+00 0
0.000000e+00 0.000000e+00 0
0.000000e+00 0.000000e+00 0
0.000000e+00 0.000000e+00 0
0.000000e+00 0.000000e+00 0
0.000000e+00 0.000000e+00 0
0.000000e+00 0.000000e+00 0
0.000000e+00 0.000000e+00 0
0.000000e+00 0.000000e+00 0
0.000000e+00 0.000000e+00 0
0.000000e+00 0.000000e+00 0
0.000000e+00 0.000000e+00 0
0.000000e+00 0.000000e+00 0
0.000000e+00 0.000000e+00 0
0.000000e+00 0.000000e+00 0
0.000000e+00 0.000000e+00 0
0.000000e+00 0.000000e+00 0
0.000000e+00 0.000000e+00 0
0.000000e+00 0.000000e+00 0
0.000000e+00 0.000000e+00 0
0.000000e+00 0.000000e+00 0
0.000000e+00 0.000000e+00 0
0.000000e+00 0.000000e+00 0
0.000000e+00 0.000000e+00 0
0.000000e+00 0.000000e+00 0
0.000000e+00 0.000000e+00 0
0.000000e+00 0.000000e+00 0
0.000000e+00 0.000000e+00 0
0.000000e+00 0.000000e+00 0
0.000000e+00 0.000000e+00 0
0.000000e+00 0.000000e+00 0
0.000000e+00 0.000000e+00 0
0.000000e+00 0.000000e+00 0
0.000000e+00 0.000000e+00 0
0.000000e+00 0.000000e+00 0
0.000000e+00 0.000000e+00 0
0.000000e+00 0.000000e+00 0
0.000000e+00 0.000000e+00 0
0.000000e+00 0.000000e+00 0
0.000000e+00 0.000000e+00 0
0.000000e+00 0.000000e+00 0
0.000000e+00 0.000000e+00 0
0.000000e+00 0.000000e+00 0
0.000000e+00 0.000000e+00 0
0.000000e+00 0.000000e+00 0
0.000000e+00 0.000000e+00 0
0.000000e+00 0.000000e+00 0
0.000000e+00 0.000000e+00 0
0.000000e+00 0.000000e+00 0
0.000000e+00 0.000000e+00 0
0.000000e+00 0.000000e+00 0
0.000000e+00 0.000000e+00 0
0.000000e+00 0.000000e+00 0
0.000000e+00 0.000000e+00 0
0.000000e+00 0.000000e+00 0
0.000000e+00 0.000000e+00 0
0.000000e+00 0.000000e+00 0
0.000000e+00 0.000000e+00 0
0.000000e+00 0.000000e+00 0
0.000000e+00 0.000000e+00 0
0.000000e+00 0.000000e+00 0
0.000000e+00 0.000000e+00 0
0.000000e+00 0.000000e+00 0
0.000000e+00 0.000000e+00 0
0.000000e+00 0.000000e+00 0
0.000000e+00 0.000000e+00 0
0.000000e+00 0.000000e+00 0
0.000000e+00 0.000000e+00 0
0.000000e+00 0.000000e+00 0
0.000000e+00 0.000000e+00 0
0.000000e+00 0.000000e+00 0
0.000000e+00 0.000000e+00 0
0.000000e+00 0.000000e+00 0
0.000000e+00 0.000000e+00 0
0.000000e+00 0.000000e+00 0
0.000000e+00 0.000000e+00 0
0.000000e+00 0.000000e+00 0
0.000000e+00 0.000000e+00 0
0.000000e+00 0.000000e+00 0
0.000000e+00 0.000000e+00 0
0.000000e+00 0.000000e+00 0
0.000000e+00 0.000000e+00 0
0.000000e+00 0.000000e+00 0
0.000000e+00 0.000000e+00 0
0.000000e+00 0.000000e+00 0
0.000000e+00 0.000000e+00 0
0.000000e+00 0.000000e+00 0
0.000000e+00 0.000000e+00 0
0.000000e+00 0.000000e+00 0
0.000000e+00 0.000000e+00 0
0.000000e+00 0.000000e+00 0
0.000000e+00 0.000000e+00 0
0.000000e+00 0.000000e+00 0
0.000000e+00 0.000000e+00 0
0.000000e+00 0.000000e+00 0
0.000000e+00 0.000000e+00 0
0.000000e+00 0.000000e+00 0
0.000000e+00 0.000000e+00 0
0.000000e+00 0.000000e+00 0
0.000000e+00 0.000000e+00 0
0.000000e+00 0.000000e+00 0
0.000000e+00 0.000000e+00 0
0.000000e+00 0.000000e+00 0
0.000000e+00 0.000000e+00 0
0.000000e+00 0.000000e+00 0
0.000000e+00 0.000000e+00 0
0.000000e+00 0.000000e+00 0
0.000000e+00 0.000000e+00 0
0.000000e+00 0.000000e+00 0
0.000000e+00 0.000000e+00 0
0.000000e+00 0.000000e+00 0
0.000000e+00 0.000000e+00 0
0.000000e+00 0.000000e+00 0
0.000000e+00 0.000000e+00 0
0.000000e+00 0.000000e+00 0
0.000000e+00 0.000000e+00 0
0.000000e+00 0.000000e+00 0
0.000000e+00 0.000000e+00 0
0.000000e+00 0.000000e+00 0
0.000000e+00 0.000000e+00 0
0.000000e+00 0.000000e+00 0
0.000000e+00 0.000000e+00 0
0.000000e+00 0.000000e+00 0
0.000000e+00 0.000000e+00 0
0.000000e+00 0.000000e+00 0
0.000000e+00 0.000000e+00 0
0.000000e+00 0.000000e+00 0
0.000000e+00 0.000000e+00 0
0.000000e+00 0.000000e+00 0
0.000000e+00 0.000000e+00 0
0.000000e+00 0.000000e+00 0
0.000000e+00 0.000000e+00 0
0.000000e+00 0.000000e+00 0
0.000000e+00 0.000000e+00 0
0.000000e+00 0.000000e+00 0
0.000000e+00 0.000000e+00 0
0.000000e+00 0.000000e+00 0
0.000000e+00 0.000000e+00 0
0.000000e+00 0.000000e+00 0
0.000000e+00 0.000000e+00 0
0.000000e+00 0.000000e+00 0
0.000000e+00 0.000000e+00 0
0.000000e+00 0.000000e+00 0
0.000000e+00 0.000000e+00 0
0.000000e+00 0.000000e+00 0
0.000000e+00 0.000000e+00 0
0.000000e+00 0.000000e+00 0
0.000000e+00 0.000000e+00 0
0.000000e+00 0.000000e+00 0
0.000000e+00 0.000000e+00 0
0.000000e+00 0.000000e+00 0
0.000000e+00 0.000000e+00 0
0.000000e+00 0.000000e+00 0
0.000000e+00 0.000000e+00 0
0.000000e+00 0.000000e+00 0
0.000000e+00 0.000000e+00 0
0.000000e+00 0.000000e+00 0
0.000000e+00 0.000000e+00 0
0.000000e+00 0.000000e+00 0
0.000000e+00 0.000000e+00 0
0.000000e+00 0.000000e+00 0
0.000000e+00 0.000000e+00 0
0.000000e+00 0.000000e+00 0
0.000000e+00 0.000000e+00 0
0.000000e+00 0.000000e+00 0
0.000000e+00 0.000000e+00 0
0.000000e+00 0.000000e+00 0
0.000000e+00 0.000000e+00 0
0.000000e+00 0.000000e+00 0
0.000000e+00 0.000000e+00 0
0.000000e+00 0.000000e+00 0
0.000000e+00 0.000000e+00 0
0.000000e+00 0.000000e+00 0
0.000000e+00 0.000000e+00 0
0.000000e+00 0.000000e+00 0
0.000000e+00 0.000000e+00 0
0.000000e+00 0.000000e+00 0
0.000000e+00 0.000000e+00 0
0.000000e+00 0.000000e+00 0
0.000000e+00 0.000000e+00 0
0.000000e+00 0.000000e+00 0
0.000000e+00 0.000000e+00 0
0.000000e+00 0.000000e+00 0
0.000000e+00 0.000000e+00 0
0.000000e+00 0.000000e+00 0
0.000000e+00 0.000000e+00 0
0.000000e+00 0.000000e+00 0
0.000000e+00 0.000000e+00 0
0.000000e+00 0.000000e+00 0
0.000000e+00 0.000000e+00 0
0.000000e+00 0.000000e+00 0
0.000000e+00 0.000000e+00 0
0.000000e+00 0.000000e+00 0
0.000000e+00 -5.000000e+01 0
0.000000e+00 -1.000000e+02 0
4.128250e-03 -1.000000e+02 0
1.008480e-02 -1.000000e+02 0
2.114243e-02 -1.000000e+02 0
-1.242352e-03 -5.000000e+01 0
1.338099e-03 0.000000e+00 0
0.000000e+00 0.000000e+00 0
0.000000e+00 0.000000e+00 0
0.000000e+00 0.000000e+00 0
0.000000e+00 0.000000e+00 0
0.000000e+00 0.000000e+00 0
0.000000e+00 0.000000e+00 0
0.000000e+00 0.000000e+00 0
0.000000e+00 0.000000e+00 0
0.000000e+00 0.000000e+00 0
0.000000e+00 0.000000e+00 0
0.000000e+00 0.000000e+00 0
0.000000e+00 0.000000e+00 0
0.000000e+00 0.000000e+00 0
0.000000e+00 -5.000000e+01 0
0.000000e+00 -1.000045e+02 0
8.223332e-03 -1.000107e+02 0
1.966153e-02 -1.000174e+02 0
3.933297e-02 -9.998861e+01 0
-2.252100e-02 -4.998002e+01 0
1.338099e-03 -2.650000e-03 0
0.000000e+00 0.000000e+00 0
0.000000e+00 0.000000e+00 0
0.000000e+00 0.000000e+00 0
0.000000e+00 0.000000e+00 0
0.000000e+00 0.000000e+00 0
0.000000e+00 0.000000e+00 0
0.000000e+00 0.000000e+00 0
0.000000e+00 0.000000e+00 0
0.000000e+00 0.000000e+00 0
0.000000e+00 0.000000e+00 0
0.000000e+00 0.000000e+00 0
0.000000e+00 0.000000e+00 0
0.000000e+00 0.000000e+00 0
0.000000e+00 -5.000000e+01 0
0.000000e+00 -1.000088e+02 0
4.697877e-03 -1.000205e+02 0
1.000157e-02 -1.000316e+02 0
1.509088e-02 -9.995752e+01 0
-4.547875e-02 -4.993760e+01 0
0.000000e+00 0.000000e+00 0
0.000000e+00 0.000000e+00 0
0.000000e+00 0.000000e+00 0
0.000000e+00 0.000000e+00 0
0.000000e+00 0.000000e+00 0
0.000000e+00 0.000000e+00 0
0.000000e+00 0.000000e+00 0
0.000000e+00 0.000000e+00 0
0.000000e+00 0.000000e+00 0
0.000000e+00 0.000000e+00 0
0.000000e+00 0.000000e+00 0
0.000000e+00 0.000000e+00 0
0.000000e+00 0.000000e+00 0
0.000000e+00 0.000000e+00 0
0.000000e+00 -5.000000e+01 0
0.000000e+00 -1.000095e+02 0
-1.821509e-03 -1.000210e+02 0
-6.107858e-03 -1.000279e+02 0
-1.867173e-02 -9.993270e+01 0
-5.134874e-02 -4.991634e+01 0
-2.714864e-02 0.000000e+00 0
0.000000e+00 0.000000e+00 0
0.000000e+00 0.000000e+00 0
0.000000e+00 0.000000e+00 0
0.000000e+00 0.000000e+00 0
0.000000e+00 0.000000e+00 0
0.000000e+00 0.000000e+00 0
0.000000e+00 0.000000e+00 0
0.000000e+00 0.000000e+00 0
0.000000e+00 0.000000e+00 0
0.000000e+00 0.000000e+00 0
0.000000e+00 0.000000e+00 0
0.000000e+00 0.000000e+00 0
0.000000e+00 0.000000e+00 0
0.000000e+00 -5.000000e+01 0
0.000000e+00 -1.000071e+02 0
-5.430946e-03 -1.000144e+02 0
-1.357130e-02 -1.000146e+02 0
-2.999274e-02 -9.991196e+01 0
1.978983e-02 -4.990475e+01 0
1.978983e-02 -5.000000e-05 0
0.000000e+00 0.000000e+00 0
0.000000e+00 0.000000e+00 0
0.000000e+00 0.000000e+00 0
0.000000e+00 0.000000e+00 0
0.000000e+00 0.000000e+00 0
0.000000e+00 0.000000e+00 0
0.000000e+00 0.000000e+00 0
0.000000e+00 0.000000e+00 0
0.000000e+00 0.000000e+00 0
0.000000e+00 0.000000e+00 0
0.000000e+00 0.000000e+00 0
0.000000e+00 0.000000e+00 0
0.000000e+00 0.000000e+00 0
0.000000e+00 -5.000000e+01 0
0.000000e+00 -1.000040e+02 0
-4.938843e-03 -1.000073e+02 0
-1.002158e-02 -1.000031e+02 0
-1.391378e-02 -9.996634e+01 0
9.449497e-02 -4.996657e+01 0
9.449497e-02 -5.000000e-05 0
0.000000e+00 0.000000e+00 0
0.000000e+00 0.000000e+00 0
0.000000e+00 0.000000e+00 0
0.000000e+00 0.000000e+00 0
0.000000e+00 0.000000e+00 0
0.000000e+00 0.000000e+00 0
0.000000e+00 0.000000e+00 0
0.000000e+00 0.000000e+00 0
0.000000e+00 0.000000e+00 0
0.000000e+00 0.000000e+00 0
0.000000e+00 0.000000e+00 0
0.000000e+00 0.000000e+00 0
0.000000e+00 0.000000e+00 0
0.000000e+00 -5.000000e+01 0
0.000000e+00 -1.000021e+02 0
-3.263854e-03 -1.000043e+02 0
-5.634482e-03 -1.000056e+02 0
-3.449580e-03 -1.000173e+02 0
2.977435e-02 -5.001398e+01 0
4.755649e-02 -5.000000e-05 0
0.000000e+00 0.000000e+00 0
0.000000e+00 0.000000e+00 0
0.000000e+00 0.000000e+00 0
0.000000e+00 0.000000e+00 0
0.000000e+00 0.000000e+00 0
0.000000e+00 0.000000e+00 0
0.000000e+00 0.000000e+00 0
0.000000e+00 0.000000e+00 0
0.000000e+00 0.000000e+00 0
0.000000e+00 0.000000e+00 0
0.000000e+00 0.000000e+00 0
0.000000e+00 0.000000e+00 0
0.000000e+00 0.000000e+00 0
0.000000e+00 -5.000000e+01 0
0.000000e+00 -1.000007e+02 0
-1.873582e-03 -1.000016e+02 0
-4.100221e-03 -1.000029e+02 0
-7.409527e-03 -1.000020e+02 0
-2.123519e-02 -5.000000e+01 0
0.000000e+00 0.000000e+00 0
0.000000e+00 0.000000e+00 0
0.000000e+00 0.000000e+00 0
0.000000e+00 0.000000e+00 0
0.000000e+00 0.000000e+00 0
0.000000e+00 0.000000e+00 0
0.000000e+00 0.000000e+00 0
0.000000e+00 0.000000e+00 0
0.000000e+00 0.000000e+00 0
0.000000e+00 0.000000e+00 0
0.000000e+00 0.000000e+00 0
0.000000e+00 0.000000e+00 0
0.000000e+00 0.000000e+00 0
0.000000e+00 0.000000e+00 0
0.000000e+00 -5.000000e+01 0
0.000000e+00 -1.000000e+02 0
-4.552197e-18 -1.000000e+02 0
-1.213919e-17 -1.000000e+02 0
-2.913364e-17 -1.000000e+02 0
-2.913406e-17 -5.000000e+01 0
0.000000e+00 0.000000e+00 0
0.000000e+00 0.000000e+00 0
0.000000e+00 0.000000e+00 0
0.000000e+00 0.000000e+00 0
0.000000e+00 0.000000e+00 0
0.000000e+00 0.000000e+00 0
0.000000e+00 0.000000e+00 0
</DataArray>
<DataArray Name="Type and Neighbourhood" type="Float64" format="ascii" NumberOfComponents="3">
1.000000e+01 0.000000e+00 0
1.000000e+01 0.000000e+00 0
1.000000e+01 0.000000e+00 0
1.000000e+01 0.000000e+00 0
1.000000e+01 0.000000e+00 0
1.000000e+01 0.000000e+00 0
1.000000e+01 0.000000e+00 0
1.000000e+01 0.000000e+00 0
1.000000e+01 0.000000e+00 0
1.000000e+01 0.000000e+00 0
1.000000e+01 0.000000e+00 0
1.000000e+01 0.000000e+00 0
1.000000e+01 0.000000e+00 0
1.000000e+01 0.000000e+00 0
1.000000e+01 0.000000e+00 0
1.000000e+01 0.000000e+00 0
1.000000e+01 0.000000e+00 0
1.000000e+01 0.000000e+00 0
1.000000e+01 0.000000e+00 0
1.000000e+00 0.000000e+00 0
1.000000e+01 0.000000e+00 0
1.000000e+01 0.000000e+00 0
1.000000e+01 0.000000e+00 0
1.000000e+01 0.000000e+00 0