<?xml version="1.0"?>
<VTKFile type="StructuredGrid">
<StructuredGrid WholeExtent="0 19 0 33 0 0 ">
<Piece Extent="0 19 0 33 0 0 ">
<Points>
<DataArray type="Float64" format="ascii" NumberOfComponents="3">
0.000000e+00 0.000000e+00 0.000000e+00
1.052632e-01 0.000000e+00 0.000000e+00
2.105263e-01 0.000000e+00 0.000000e+00
3.157895e-01 0.000000e+00 0.000000e+00
4.210526e-01 0.000000e+00 0.000000e+00
5.263158e-01 0.000000e+00 0.000000e+00
6.315789e-01 0.000000e+00 0.000000e+00
7.368421e-01 0.000000e+00 0.000000e+00
8.421053e-01 0.000000e+00 0.000000e+00
9.473684e-01 0.000000e+00 0.000000e+00
1.052632e+00 0.000000e+00 0.000000e+00
1.157895e+00 0.000000e+00 0.000000e+00
1.263158e+00 0.000000e+00 0.000000e+00
1.368421e+00 0.000000e+00 0.000000e+00
1.473684e+00 0.000000e+00 0.000000e+00
1.578947e+00 0.000000e+00 0.000000e+00
1.684211e+00 0.000000e+00 0.000000e+00
1.789474e+00 0.000000e+00 0.000000e+00
1.894737e+00 0.000000e+00 0.000000e+00
2.000000e+00 0.000000e+00 0.000000e+00
0.000000e+00 1.060606e-01 0.000000e+00
1.052632e-01 1.060606e-01 0.000000e+00
2.105263e-01 1.060606e-01 0.000000e+00
3.157895e-01 1.060606e-01 0.000000e+00
4.210526e-01 1.060606e-01 0.000000e+00
5.263158e-01 1.060606e-01 0.000000e+00
6.315789e-01 1.060606e-01 0.000000e+00
7.368421e-01 1.060606e-01 0.000000e+00
8.421053e-01 1.060606e-01 0.000000e+00
9.473684e-01 1.060606e-01 0.000000e+00
1.052632e+00 1.060606e-01 0.000000e+00
1.157895e+00 1.060606e-01 0.000000e+00
1.263158e+00 1.060606e-01 0.000000e+00
1.368421e+00 1.060606e-01 0.000000e+00
1.473684e+00 1.060606e-01 0.000000e+00
1.578947e+00 1.060606e-01 0.000000e+00
1.684211e+00 1.060606e-01 0.000000e+00
1.789474e+00 1.060606e-01 0.000000e+00
1.894737e+00 1.060606e-01 0.000000e+00
2.000000e+00 1.060606e-01 0.000000e+00
0.000000e+00 2.121212e-01 0.000000e+00
1.052632e-01 2.121212e-01 0.000000e+00
2.105263e-01 2.121212e-01 0.000000e+00
3.157895e-01 2.121212e-01 0.000000e+00
4.210526e-01 2.121212e-01 0.000000e+00
5.263158e-01 2.121212e-01 0.000000e+00
6.315789e-01 2.121212e-01 0.000000e+00
7.368421e-01 2.121212e-01 0.000000e+00
8.421053e-01 2.121212e-01 0.000000e+00
9.473684e-01 2.121212e-01 0.000000e+00
1.052632e+00 2.121212e-01 0.000000e+00
1.157895e+00 2.121212e-01 0.000000e+00
1.263158e+00 2.121212e-01 0.000000e+00
1.368421e+00 2.121212e-01 0.000000e+00
1.473684e+00 2.121212e-01 0.000000e+00
1.578947e+00 2.121212e-01 0.000000e+00
1.684211e+00 2.121212e-01 0.000000e+00
1.789474e+00 2.121212e-01 0.000000e+00
1.894737e+00 2.121212e-01 0.000000e+00
2.000000e+00 2.121212e-01 0.000000e+00
0.000000e+00 3.181818e-01 0.000000e+00
1.052632e-01 3.181818e-01 0.000000e+00
2.105263e-01 3.181818e-01 0.000000e+00
3.157895e-01 3.181818e-01 0.000000e+00
4.210526e-01 3.181818e-01 0.000000e+00
5.263158e-01 3.181818e-01 0.000000e+00
6.315789e-01 3.181818e-01 0.000000e+00
7.368421e-01 3.181818e-01 0.000000e+00
8.421053e-01 3.181818e-01 0.000000e+00
9.473684e-01 3.181818e-01 0.000000e+00
1.052632e+00 3.181818e-01 0.000000e+00
1.157895e+00 3.181818e-01 0.000000e+00
1.263158e+00 3.181818e-01 0.000000e+00
1.368421e+00 3.181818e-01 0.000000e+00
1.473684e+00 3.181818e-01 0.000000e+00
1.578947e+00 3.181818e-01 0.000000e+00
1.684211e+00 3.181818e-01 0.000000e+00
1.789474e+00 3.181818e-01 0.000000e+00
1.894737e+00 3.181818e-01 0.000000e+00
2.000000e+00 3.181818e-01 0.000000e+00
0.000000e+00 4.242424e-01 0.000000e+00
1.052632e-01 4.242424e-01 0.000000e+00
2.105263e-01 4.242424e-01 0.000000e+00
3.157895e-01 4.242424e-01 0.000000e+00
4.210526e-01 4.242424e-01 0.000000e+00
5.263158e-01 4.242424e-01 0.000000e+00
6.315789e-01 4.242424e-01 0.000000e+00
7.368421e-01 4.242424e-01 0.000000e+00
8.421053e-01 4.242424e-01 0.000000e+00
9.473684e-01 4.242424e-01 0.000000e+00
1.052632e+00 4.242424e-01 0.000000e+00
1.157895e+00 4.242424e-01 0.000000e+00
1.263158e+00 4.242424e-01 0.000000e+00
1.368421e+00 4.242424e-01 0.000000e+00
1.473684e+00 4.242424e-01 0.000000e+00
1.578947e+00 4.242424e-01 0.000000e+00
1.684211e+00 4.242424e-01 0.000000e+00
1.789474e+00 4.242424e-01 0.000000e+00
1.894737e+00 4.242424e-01 0.000000e+00
2.000000e+00 4.242424e-01 0.000000e+00
0.000000e+00 5.303030e-01 0.000000e+00
1.052632e-01 5.303030e-01 0.000000e+00
2.105263e-01 5.303030e-01 0.000000e+00
3.157895e-01 5.303030e-01 0.000000e+00
4.210526e-01 5.303030e-01 0.000000e+00
5.263158e-01 5.303030e-01 0.000000e+00
6.315789e-01 5.303030e-01 0.000000e+00
7.368421e-01 5.303030e-01 0.000000e+00
8.421053e-01 5.303030e-01 0.000000e+00
9.473684e-01 5.303030e-01 0.000000e+00
1.052632e+00 5.303030e-01 0.000000e+00
1.157895e+00 5.303030e-01 0.000000e+00
1.263158e+00 5.303030e-01 0.000000e+00
1.368421e+00 5.303030e-01 0.000000e+00
1.473684e+00 5.303030e-01 0.000000e+00
1.578947e+00 5.303030e-01 0.000000e+00
1.684211e+00 5.303030e-01 0.000000e+00
1.789474e+00 5.303030e-01 0.000000e+00
1.894737e+00 5.303030e-01 0.000000e+00
2.000000e+00 5.303030e-01 0.000000e+00
0.000000e+00 6.363636e-01 0.000000e+00
1.052632e-01 6.363636e-01 0.000000e+00
2.105263e-01 6.363636e-01 0.000000e+00
3.157895e-01 6.363636e-01 0.000000e+00
4.210526e-01 6.363636e-01 0.000000e+00
5.263158e-01 6.363636e-01 0.000000e+00
6.315789e-01 6.363636e-01 0.000000e+00
7.368421e-01 6.363636e-01 0.000000e+00
8.421053e-01 6.363636e-01 0.000000e+00
9.473684e-01 6.363636e-01 0.000000e+00
1.052632e+00 6.363636e-01 0.000000e+00
1.157895e+00 6.363636e-01 0.000000e+00
1.263158e+00 6.363636e-01 0.000000e+00
1.368421e+00 6.363636e-01 0.000000e+00
1.473684e+00 6.363636e-01 0.000000e+00
1.578947e+00 6.363636e-01 0.000000e+00
1.684211e+00 6.363636e-01 0.000000e+00
1.789474e+00 6.363636e-01 0.000000e+00
1.894737e+00 6.363636e-01 0.000000e+00
2.000000e+00 6.363636e-01 0.000000e+00
0.000000e+00 7.424242e-01 0.000000e+00
1.052632e-01 7.424242e-01 0.000000e+00
2.105263e-01 7.424242e-01 0.000000e+00
3.157895e-01 7.424242e-01 0.000000e+00
4.210526e-01 7.424242e-01 0.000000e+00
5.263158e-01 7.424242e-01 0.000000e+00
6.315789e-01 7.424242e-01 0.000000e+00
7.368421e-01 7.424242e-01 0.000000e+00
8.421053e-01 7.424242e-01 0.000000e+00
9.473684e-01 7.424242e-01 0.000000e+00
1.052632e+00 7.424242e-01 0.000000e+00
1.157895e+00 7.424242e-01 0.000000e+00
1.263158e+00 7.424242e-01 0.000000e+00
1.368421e+00 7.424242e-01 0.000000e+00
1.473684e+00 7.424242e-01 0.000000e+00
1.578947e+00 7.424242e-01 0.000000e+00
1.684211e+00 7.424242e-01 0.000000e+00
1.789474e+00 7.424242e-01 0.000000e+00
1.894737e+00 7.424242e-01 0.000000e+00
2.000000e+00 7.424242e-01 0.000000e+00
0.000000e+00 8.484848e-01 0.000000e+00
1.052632e-01 8.484848e-01 0.000000e+00
2.105263e-01 8.484848e-01 0.000000e+00
3.157895e-01 8.484848e-01 0.000000e+00
4.210526e-01 8.484848e-01 0.000000e+00
5.263158e-01 8.484848e-01 0.000000e+00
6.315789e-01 8.484848e-01 0.000000e+00
7.368421e-01 8.484848e-01 0.000000e+00
8.421053e-01 8.484848e-01 0.000000e+00
9.473684e-01 8.484848e-01 0.000000e+00
1.052632e+00 8.484848e-01 0.000000e+00
1.157895e+00 8.484848e-01 0.000000e+00
1.263158e+00 8.484848e-01 0.000000e+00
1.368421e+00 8.484848e-01 0.000000e+00
1.473684e+00 8.484848e-01 0.000000e+00
1.578947e+00 8.484848e-01 0.000000e+00
1.684211e+00 8.484848e-01 0.000000e+00
1.789474e+00 8.484848e-01 0.000000e+00
1.894737e+00 8.484848e-01 0.000000e+00
2.000000e+00 8.484848e-01 0.000000e+00
0.000000e+00 9.545455e-01 0.000000e+00
1.052632e-01 9.545455e-01 0.000000e+00
2.105263e-01 9.545455e-01 0.000000e+00
3.157895e-01 9.545455e-01 0.000000e+00
4.210526e-01 9.545455e-01 0.000000e+00
5.263158e-01 9.545455e-01 0.000000e+00
6.315789e-01 9.545455e-01 0.000000e+00
7.368421e-01 9.545455e-01 0.000000e+00
8.421053e-01 9.545455e-01 0.000000e+00
9.473684e-01 9.545455e-01 0.000000e+00
1.052632e+00 9.545455e-01 0.000000e+00
1.157895e+00 9.545455e-01 0.000000e+00
1.263158e+00 9.545455e-01 0.000000e+00
1.368421e+00 9.545455e-01 0.000000e+00
1.473684e+00 9.545455e-01 0.000000e+00
1.578947e+00 9.545455e-01 0.000000e+00
1.684211e+00 9.545455e-01 0.000000e+00
1.789474e+00 9.545455e-01 0.000000e+00
1.894737e+00 9.545455e-01 0.000000e+00
2.000000e+00 9.545455e-01 0.000000e+00
0.000000e+00 1.060606e+00 0.000000e+00
1.052632e-01 1.060606e+00 0.000000e+00
2.105263e-01 1.060606e+00 0.000000e+00
3.157895e-01 1.060606e+00 0.000000e+00
4.210526e-01 1.060606e+00 0.000000e+00
5.263158e-01 1.060606e+00 0.000000e+00
6.315789e-01 1.060606e+00 0.000000e+00
7.368421e-01 1.060606e+00 0.000000e+00
8.421053e-01 1.060606e+00 0.000000e+00
9.473684e-01 1.060606e+00 0.000000e+00
1.052632e+00 1.060606e+00 0.000000e+00
1.157895e+00 1.060606e+00 0.000000e+00
1.263158e+00 1.060606e+00 0.000000e+00
1.368421e+00 1.060606e+00 0.000000e+00
1.473684e+00 1.060606e+00 0.000000e+00
1.578947e+00 1.060606e+00 0.000000e+00
1.684211e+00 1.060606e+00 0.000000e+00
1.789474e+00 1.060606e+00 0.000000e+00
1.894737e+00 1.060606e+00 0.000000e+00
2.000000e+00 1.060606e+00 0.000000e+00
0.000000e+00 1.166667e+00 0.000000e+00
1.052632e-01 1.166667e+00 0.000000e+00
2.105263e-01 1.166667e+00 0.000000e+00
3.157895e-01 1.166667e+00 0.000000e+00
4.210526e-01 1.166667e+00 0.000000e+00
5.263158e-01 1.166667e+00 0.000000e+00
6.315789e-01 1.166667e+00 0.000000e+00
7.368421e-01 1.166667e+00 0.000000e+00
8.421053e-01 1.166667e+00 0.000000e+00
9.473684e-01 1.166667e+00 0.000000e+00
1.052632e+00 1.166667e+00 0.000000e+00
1.157895e+00 1.166667e+00 0.000000e+00
1.263158e+00 1.166667e+00 0.000000e+00
1.368421e+00 1.166667e+00 0.000000e+00
1.473684e+00 1.166667e+00 0.000000e+00
1.578947e+00 1.166667e+00 0.000000e+00
1.684211e+00 1.166667e+00 0.000000e+00
1.789474e+00 1.166667e+00 0.000000e+00
1.894737e+00 1.166667e+00 0.000000e+00
2.000000e+00 1.166667e+00 0.000000e+00
0.000000e+00 1.272727e+00 0.000000e+00
1.052632e-01 1.272727e+00 0.000000e+00
2.105263e-01 1.272727e+00 0.000000e+00
3.157895e-01 1.272727e+00 0.000000e+00
4.210526e-01 1.272727e+00 0.000000e+00
5.263158e-01 1.272727e+00 0.000000e+00
6.315789e-01 1.272727e+00 0.000000e+00
7.368421e-01 1.272727e+00 0.000000e+00
8.421053e-01 1.272727e+00 0.000000e+00
9.473684e-01 1.272727e+00 0.000000e+00
1.052632e+00 1.272727e+00 0.000000e+00
[...]
<PointData>
<DataArray Name="Velocity" type="Float64" format="ascii" NumberOfComponents="3">
0.000000e+00 0.000000e+00 0
0.000000e+00 0.000000e+00 0
0.000000e+00 0.000000e+00 0
0.000000e+00 0.000000e+00 0
0.000000e+00 0.000000e+00 0
0.000000e+00 0.000000e+00 0
0.000000e+00 0.000000e+00 0
0.000000e+00 0.000000e+00 0
0.000000e+00 0.000000e+00 0
0.000000e+00 0.000000e+00 0
0.000000e+00 0.000000e+00 0
2.385121e-16 0.000000e+00 0
0.000000e+00 0.000000e+00 0
0.000000e+00 0.000000e+00 0
0.000000e+00 0.000000e+00 0
-6.357771e-16 0.000000e+00 0
0.000000e+00 0.000000e+00 0
0.000000e+00 0.000000e+00 0
0.000000e+00 0.000000e+00 0
0.000000e+00 0.000000e+00 0
0.000000e+00 0.000000e+00 0
-6.189982e+01 6.990723e+01 0
-9.826189e+01 3.838500e+01 0
-1.108132e+02 1.778220e+01 0
-8.703011e+01 2.964508e+00 0
-8.487516e+01 -5.534944e+01 0
-3.485576e+01 -6.487867e+01 0
-3.576593e+01 -2.296734e+01 0
-1.845272e+01 -1.683352e+01 0
-6.488937e+00 -1.207703e+01 0
5.899810e+00 -1.147584e+01 0
1.654823e+01 -1.084419e+01 0
2.868113e+01 -1.058609e+01 0
3.809504e+01 -7.238694e+00 0
4.312116e+01 -2.586086e+00 0
4.316199e+01 2.312553e+00 0
3.823144e+01 6.913363e+00 0
2.882937e+01 1.088809e+01 0
1.577274e+01 1.415029e+01 0
0.000000e+00 -3.480549e-14 0
0.000000e+00 0.000000e+00 0
-2.238597e+01 9.900629e+01 0
-3.097624e+01 4.928394e+01 0
-2.888027e+01 1.264641e+01 0
0.000000e+00 0.000000e+00 0
0.000000e+00 -5.181365e+01 0
-1.836391e+01 -5.109510e+01 0
-3.275043e+01 -1.672582e+01 0
-1.923846e+01 -2.949879e+01 0
-5.547567e+00 -2.453702e+01 0
6.644052e+00 -2.321169e+01 0
1.864165e+01 -2.295390e+01 0
3.170327e+01 -2.171004e+01 0
4.122239e+01 -1.454942e+01 0
4.636993e+01 -5.105341e+00 0
4.640068e+01 4.926754e+00 0
4.092651e+01 1.444120e+01 0
3.062927e+01 2.262885e+01 0
1.656120e+01 2.904778e+01 0
0.000000e+00 -6.712488e-14 0
0.000000e+00 0.000000e+00 0
-4.484670e+00 1.011181e+02 0
-2.257942e+00 3.439393e+01 0
0.000000e+00 3.309508e-15 0
0.000000e+00 0.000000e+00 0
0.000000e+00 -5.181365e+01 0
-2.950048e+01 -4.926662e+01 0
-3.422921e+01 -2.233414e+01 0
-1.898355e+01 -4.424247e+01 0
-4.352165e+00 -3.815562e+01 0
8.264329e+00 -3.584831e+01 0
2.101593e+01 -3.609325e+01 0
3.479901e+01 -3.333789e+01 0
4.414160e+01 -2.201647e+01 0
4.986569e+01 -7.803614e+00 0
5.067583e+01 7.797208e+00 0
4.441126e+01 2.280426e+01 0
3.281559e+01 3.543798e+01 0
1.758433e+01 4.501161e+01 0
0.000000e+00 -1.044165e-13 0
0.000000e+00 0.000000e+00 0
7.364872e-01 1.012813e+02 0
7.364872e-01 3.439393e+01 0
0.000000e+00 0.000000e+00 0
0.000000e+00 0.000000e+00 0
0.000000e+00 -5.181365e+01 0
-2.565228e+01 -4.638410e+01 0
-3.023123e+01 -2.737598e+01 0
-1.547122e+01 -5.960218e+01 0
-1.793224e+00 -5.199133e+01 0
1.034040e+01 -4.877196e+01 0
2.298953e+01 -4.968961e+01 0
3.688024e+01 -4.501091e+01 0
4.527748e+01 -2.973025e+01 0
5.268859e+01 -1.168907e+01 0
5.797736e+01 1.042251e+01 0
5.028217e+01 3.243675e+01 0
3.627380e+01 4.965901e+01 0
1.903656e+01 6.211197e+01 0
0.000000e+00 -1.441942e-13 0
0.000000e+00 0.000000e+00 0
1.777553e+00 1.003761e+02 0
1.777553e+00 3.439393e+01 0
0.000000e+00 0.000000e+00 0
0.000000e+00 0.000000e+00 0
0.000000e+00 -5.181365e+01 0
-1.153685e+01 -4.459905e+01 0
-1.382614e+01 -3.253840e+01 0
-7.724670e+00 -7.289591e+01 0
2.012051e+00 -6.416278e+01 0
1.233052e+01 -6.081881e+01 0
2.390979e+01 -6.283415e+01 0
3.695243e+01 -5.579469e+01 0
4.298470e+01 -3.794458e+01 0
5.378106e+01 -2.059970e+01 0
3.608069e+01 1.022186e+01 0
4.618700e+01 4.467223e+01 0
3.469213e+01 6.692030e+01 0
1.838178e+01 8.156021e+01 0
0.000000e+00 -1.839719e-13 0
0.000000e+00 0.000000e+00 0
1.510095e+00 9.949032e+01 0
1.510095e+00 3.439393e+01 0
0.000000e+00 0.000000e+00 0
0.000000e+00 0.000000e+00 0
0.000000e+00 0.000000e+00 0
0.000000e+00 0.000000e+00 0
-1.983012e+00 -3.899476e+01 0
-1.129358e+00 -7.560189e+01 0
5.122456e+00 -7.219845e+01 0
1.332788e+01 -7.083559e+01 0
2.319301e+01 -7.449805e+01 0
3.429358e+01 -6.423033e+01 0
3.536241e+01 -4.668636e+01 0
4.187602e+01 -4.732752e+00 0
3.076268e+00 1.807411e+01 0
1.750636e+01 3.383582e+01 0
2.777591e+01 7.767487e+01 0
1.418276e+01 9.706692e+01 0
0.000000e+00 -2.187774e-13 0
0.000000e+00 0.000000e+00 0
1.138259e+00 9.885454e+01 0
1.138259e+00 3.439393e+01 0
0.000000e+00 0.000000e+00 0
0.000000e+00 0.000000e+00 0
0.000000e+00 0.000000e+00 0
0.000000e+00 0.000000e+00 0
-2.545617e+00 -4.063468e+01 0
9.587964e-01 -8.007676e+01 0
6.235283e+00 -7.872954e+01 0
1.284394e+01 -7.902627e+01 0
2.074518e+01 -8.395868e+01 0
2.913157e+01 -6.805628e+01 0
2.182539e+01 -4.558447e+01 0
1.501754e+01 1.193104e+01 0
-1.558914e+00 3.477615e+01 0
-1.558914e+00 1.988024e+01 0
6.188378e+00 7.036385e+01 0
5.914941e+00 1.095465e+02 0
0.000000e+00 -2.486107e-13 0
0.000000e+00 0.000000e+00 0
1.118060e+00 9.834344e+01 0
1.118060e+00 3.439393e+01 0
0.000000e+00 0.000000e+00 0
0.000000e+00 0.000000e+00 0
0.000000e+00 0.000000e+00 0
0.000000e+00 0.000000e+00 0
-2.462751e+00 -4.251621e+01 0
1.458453e+00 -8.443980e+01 0
6.015545e+00 -8.417364e+01 0
1.120232e+01 -8.545541e+01 0
1.703524e+01 -9.090907e+01 0
2.225950e+01 -6.531872e+01 0
-1.397655e+00 -1.761503e+01 0
0.000000e+00 0.000000e+00 0
0.000000e+00 0.000000e+00 0
0.000000e+00 2.554332e+01 0
-8.470059e+00 7.097244e+01 0
-3.943615e-01 1.035197e+02 0
0.000000e+00 -2.486107e-13 0
0.000000e+00 0.000000e+00 0
1.195174e+00 9.772801e+01 0
1.195174e+00 3.439393e+01 0
0.000000e+00 0.000000e+00 0
0.000000e+00 0.000000e+00 0
0.000000e+00 0.000000e+00 0
0.000000e+00 -5.000000e-05 0
-1.324885e+00 -4.460010e+01 0
1.612651e+00 -8.863375e+01 0
5.172262e+00 -8.854722e+01 0
9.011399e+00 -9.012944e+01 0
1.293170e+01 -9.509962e+01 0
1.517070e+01 -4.948375e+01 0
-2.311832e+00 -5.000000e-05 0
0.000000e+00 0.000000e+00 0
0.000000e+00 0.000000e+00 0
0.000000e+00 2.554332e+01 0
-5.260633e+00 6.931215e+01 0
-1.322921e+00 1.013374e+02 0
0.000000e+00 -2.386662e-13 0
0.000000e+00 0.000000e+00 0
4.809557e-01 9.713921e+01 0
4.809557e-01 3.439393e+01 0
0.000000e+00 0.000000e+00 0
0.000000e+00 0.000000e+00 0
0.000000e+00 0.000000e+00 0
0.000000e+00 -5.000000e-05 0
-3.569087e-01 -4.553045e+01 0
1.424179e+00 -9.104057e+01 0
4.059681e+00 -9.162844e+01 0
6.803300e+00 -9.327364e+01 0
9.298414e+00 -9.711503e+01 0
9.879094e+00 -4.995971e+01 0
9.879094e+00 -5.000000e-05 0
0.000000e+00 0.000000e+00 0
0.000000e+00 0.000000e+00 0
0.000000e+00 2.554332e+01 0
-5.761579e+00 6.726833e+01 0
-1.535534e+00 9.848262e+01 0
0.000000e+00 -2.486107e-13 0
0.000000e+00 0.000000e+00 0
-2.651577e+00 9.724341e+01 0
-1.034172e-01 3.439393e+01 0
0.000000e+00 0.000000e+00 0
0.000000e+00 0.000000e+00 0
0.000000e+00 0.000000e+00 0
0.000000e+00 -5.000000e-05 0
-1.926346e+00 -4.645462e+01 0
5.595511e-01 -9.314374e+01 0
2.848055e+00 -9.396709e+01 0
4.881378e+00 -9.540786e+01 0
6.495893e+00 -9.819871e+01 0
6.597742e+00 -5.006883e+01 0
6.597742e+00 -5.000000e-05 0
0.000000e+00 0.000000e+00 0
0.000000e+00 0.000000e+00 0
0.000000e+00 2.554332e+01 0
-4.745895e+00 6.532403e+01 0
-1.104670e+00 9.580208e+01 0
0.000000e+00 -2.386662e-13 0
0.000000e+00 0.000000e+00 0
-2.804982e+00 6.541694e+01 0
0.000000e+00 0.000000e+00 0
0.000000e+00 0.000000e+00 0
0.000000e+00 0.000000e+00 0
0.000000e+00 0.000000e+00 0
0.000000e+00 -5.000000e-05 0
-2.277622e+00 -4.803483e+01 0
3.173647e-02 -9.585079e+01 0
1.901087e+00 -9.598301e+01 0
3.399881e+00 -9.694911e+01 0
4.480114e+00 -9.884440e+01 0
4.431446e+00 -5.006233e+01 0
4.431446e+00 -5.000000e-05 0
0.000000e+00 0.000000e+00 0
0.000000e+00 0.000000e+00 0
0.000000e+00 2.554332e+01 0
-3.389762e+00 6.380727e+01 0
-3.218703e-01 9.390853e+01 0
0.000000e+00 -2.386662e-13 0
0.000000e+00 0.000000e+00 0
-2.176047e-01 6.567571e+01 0
3.921745e-02 2.579267e-14 0
0.000000e+00 0.000000e+00 0
0.000000e+00 0.000000e+00 0
0.000000e+00 0.000000e+00 0
0.000000e+00 -5.000000e-05 0
-8.479312e-01 -4.876597e+01 0
1.420265e-01 -9.733860e+01 0
1.331528e+00 -9.736075e+01 0
2.350185e+00 -9.800643e+01 0
3.067440e+00 -9.923810e+01 0
2.973864e+00 -5.001979e+01 0
2.973864e+00 -5.000000e-05 0
0.000000e+00 0.000000e+00 0
0.000000e+00 0.000000e+00 0
0.000000e+00 2.554332e+01 0
-2.304746e+00 6.240690e+01 0
2.996072e-01 9.256064e+01 0
0.000000e+00 -2.386662e-13 0
0.000000e+00 0.000000e+00 0
1.412792e-01 7.794858e+01 0
1.412792e-01 1.231999e+01 0
0.000000e+00 0.000000e+00 0
0.000000e+00 0.000000e+00 0
0.000000e+00 0.000000e+00 0
0.000000e+00 -5.000000e-05 0
-3.215183e-01 -4.903480e+01 0
1.938390e-01 -9.804928e+01 0
9.355284e-01 -9.820789e+01 0
1.609355e+00 -9.869817e+01 0
2.082337e+00 -9.947280e+01 0
1.981967e+00 -4.996804e+01 0
1.981967e+00 -5.000000e-05 0
0.000000e+00 0.000000e+00 0
0.000000e+00 0.000000e+00 0
0.000000e+00 2.554332e+01 0
-1.193013e+00 6.133453e+01 0
4.598239e-01 9.173766e+01 0
0.000000e+00 -2.287218e-13 0
0.000000e+00 0.000000e+00 0
1.807601e-01 7.784575e+01 0
1.807601e-01 1.231999e+01 0
0.000000e+00 0.000000e+00 0
0.000000e+00 0.000000e+00 0
0.000000e+00 0.000000e+00 0
0.000000e+00 -5.000000e-05 0
-4.027564e-01 -4.929239e+01 0
7.434702e-02 -9.861233e+01 0
6.087285e-01 -9.878699e+01 0
1.073447e+00 -9.916192e+01 0
1.390765e+00 -9.961353e+01 0
1.300523e+00 -4.991866e+01 0
1.300523e+00 -5.000000e-05 0
0.000000e+00 0.000000e+00 0
0.000000e+00 0.000000e+00 0
0.000000e+00 2.554332e+01 0
-3.057194e-01 6.088571e+01 0
5.339670e-01 9.150275e+01 0
0.000000e+00 -2.287218e-13 0
0.000000e+00 0.000000e+00 0
1.290186e-01 7.776645e+01 0
1.290186e-01 1.231999e+01 0
0.000000e+00 0.000000e+00 0
0.000000e+00 0.000000e+00 0
0.000000e+00 0.000000e+00 0
0.000000e+00 -5.000000e-05 0
-5.057985e-01 -4.951545e+01 0
-6.401822e-02 -9.906836e+01 0
3.528027e-01 -9.921456e+01 0
6.873422e-01 -9.948614e+01 0
9.063252e-01 -9.970160e+01 0
8.345802e-01 -4.987712e+01 0
8.345802e-01 -5.000000e-05 0
0.000000e+00 0.000000e+00 0
0.000000e+00 0.000000e+00 0
0.000000e+00 0.000000e+00 0
0.000000e+00 3.513192e+01 0
5.495446e-01 9.161723e+01 0
0.000000e+00 -2.287218e-13 0
0.000000e+00 0.000000e+00 0
8.246238e-02 7.771575e+01 0
8.246238e-02 1.231999e+01 0
0.000000e+00 0.000000e+00 0
0.000000e+00 0.000000e+00 0
0.000000e+00 0.000000e+00 0
0.000000e+00 -5.000000e-05 0
-3.674773e-01 -4.974262e+01 0
-1.156200e-01 -9.948253e+01 0
1.803481e-01 -9.954404e+01 0
4.183196e-01 -9.971964e+01 0
5.735062e-01 -9.976188e+01 0
5.273943e-01 -4.984637e+01 0
5.273943e-01 -5.000000e-05 0
0.000000e+00 0.000000e+00 0
0.000000e+00 0.000000e+00 0
0.000000e+00 0.000000e+00 0
0.000000e+00 3.513192e+01 0
5.556592e-01 9.184551e+01 0
0.000000e+00 -2.386662e-13 0
0.000000e+00 0.000000e+00 0
5.340041e-02 7.768336e+01 0
5.340041e-02 1.231999e+01 0
0.000000e+00 0.000000e+00 0
0.000000e+00 0.000000e+00 0
0.000000e+00 0.000000e+00 0
0.000000e+00 -5.000000e-05 0
-3.356094e-01 -4.977399e+01 0
-1.449786e-01 -9.962511e+01 0
6.660053e-02 -9.975255e+01 0
2.329151e-01 -9.988227e+01 0
3.458213e-01 -9.981150e+01 0
3.425286e-01 -4.983065e+01 0
3.425286e-01 -5.000000e-05 0
0.000000e+00 0.000000e+00 0
0.000000e+00 0.000000e+00 0
0.000000e+00 0.000000e+00 0
0.000000e+00 3.513192e+01 0
8.120817e-01 9.217091e+01 0
0.000000e+00 -2.486107e-13 0
0.000000e+00 0.000000e+00 0
3.352923e-02 7.766194e+01 0
3.352923e-02 1.231999e+01 0
0.000000e+00 0.000000e+00 0
0.000000e+00 0.000000e+00 0
0.000000e+00 0.000000e+00 0
0.000000e+00 -5.000000e-05 0
-2.960253e-01 -4.993459e+01 0
-1.423377e-01 -9.988768e+01 0
-1.443122e-03 -9.992480e+01 0
1.011352e-01 -1.000010e+02 0
1.657949e-01 -9.987233e+01 0
1.878226e-01 -4.984306e+01 0
1.384651e-01 -5.000000e-05 0
0.000000e+00 0.000000e+00 0
0.000000e+00 0.000000e+00 0
0.000000e+00 0.000000e+00 0
0.000000e+00 3.513192e+01 0
1.189822e+00 9.265445e+01 0
0.000000e+00 -2.486107e-13 0
0.000000e+00 0.000000e+00 0
1.284950e-02 7.764958e+01 0
1.284950e-02 1.231999e+01 0
0.000000e+00 0.000000e+00 0
0.000000e+00 0.000000e+00 0
0.000000e+00 0.000000e+00 0
0.000000e+00 -5.000000e-05 0
-9.805044e-02 -4.992859e+01 0
-8.430873e-02 -9.992167e+01 0
-3.100280e-02 -9.999786e+01 0
7.037028e-03 -1.000508e+02 0
9.863493e-03 -9.989884e+01 0
-4.537156e-02 -4.985280e+01 0
0.000000e+00 0.000000e+00 0
0.000000e+00 0.000000e+00 0
0.000000e+00 0.000000e+00 0
0.000000e+00 0.000000e+00 0
0.000000e+00 3.513192e+01 0
7.055246e-01 9.336016e+01 0
0.000000e+00 -2.386662e-13 0
0.000000e+00 -9.444669e-20 0
5.786150e-04 7.764900e+01 0
5.786150e-04 1.231999e+01 0
0.000000e+00 0.000000e+00 0
0.000000e+00 0.000000e+00 0
0.000000e+00 0.000000e+00 0
0.000000e+00 -5.000000e-05 0
-8.767682e-02 -4.994899e+01 0
-5.522833e-02 -9.995580e+01 0
-4.556152e-02 -1.000168e+02 0
-5.227298e-02 -1.000422e+02 0
-9.889558e-02 -9.981952e+01 0
-2.567961e-01 -4.978735e+01 0
0.000000e+00 0.000000e+00 0
0.000000e+00 0.000000e+00 0
0.000000e+00 0.000000e+00 0
0.000000e+00 0.000000e+00 0
0.000000e+00 0.000000e+00 0
0.000000e+00 5.885470e+01 0
0.000000e+00 -2.486107e-13 0
0.000000e+00 -2.255644e-05 0
0.000000e+00 7.764900e+01 0
0.000000e+00 1.231999e+01 0
0.000000e+00 0.000000e+00 0
0.000000e+00 0.000000e+00 0
0.000000e+00 0.000000e+00 0
0.000000e+00 -5.000000e-05 0
-3.270533e-02 -4.996109e+01 0
-3.050887e-02 -9.996391e+01 0
-4.383884e-02 -1.000008e+02 0
-7.150470e-02 -9.999704e+01 0
-1.364630e-01 -9.969277e+01 0
-3.565416e-01 -4.969370e+01 0
1.689956e-01 0.000000e+00 0
0.000000e+00 0.000000e+00 0
0.000000e+00 0.000000e+00 0
0.000000e+00 0.000000e+00 0
0.000000e+00 0.000000e+00 0
0.000000e+00 5.885470e+01 0
0.000000e+00 -2.486107e-13 0
0.000000e+00 0.000000e+00 0
0.000000e+00 0.000000e+00 0
0.000000e+00 0.000000e+00 0
0.000000e+00 0.000000e+00 0
0.000000e+00 0.000000e+00 0
0.000000e+00 0.000000e+00 0
0.000000e+00 0.000000e+00 0
0.000000e+00 -4.999080e+01 0
-1.011749e-02 -9.998410e+01 0
-2.778751e-02 -9.997540e+01 0
-5.207726e-02 -9.994883e+01 0
-1.071766e-01 -9.953233e+01 0
-2.547892e-02 -4.956826e+01 0
3.379912e-01 -2.650000e-03 0
0.000000e+00 0.000000e+00 0
0.000000e+00 0.000000e+00 0
0.000000e+00 0.000000e+00 0
0.000000e+00 0.000000e+00 0
0.000000e+00 5.885470e+01 0
0.000000e+00 -2.486107e-13 0
0.000000e+00 0.000000e+00 0
0.000000e+00 0.000000e+00 0
0.000000e+00 0.000000e+00 0
0.000000e+00 0.000000e+00 0
0.000000e+00 0.000000e+00 0
0.000000e+00 0.000000e+00 0
0.000000e+00 0.000000e+00 0
0.000000e+00 -5.000000e+01 0
0.000000e+00 -9.998521e+01 0
-4.588056e-03 -9.995871e+01 0
1.715227e-04 -9.991705e+01 0
2.251021e-02 -9.971891e+01 0
4.443094e-01 -4.977801e+01 0
4.443094e-01 -2.650000e-03 0
0.000000e+00 0.000000e+00 0
0.000000e+00 0.000000e+00 0
0.000000e+00 0.000000e+00 0
0.000000e+00 0.000000e+00 0
0.000000e+00 5.885470e+01 0
0.000000e+00 -2.486107e-13 0
0.000000e+00 0.000000e+00 0
0.000000e+00 0.000000e+00 0
0.000000e+00 0.000000e+00 0
0.000000e+00 0.000000e+00 0
0.000000e+00 0.000000e+00 0
0.000000e+00 0.000000e+00 0
0.000000e+00 0.000000e+00 0
0.000000e+00 -5.000000e+01 0
0.000000e+00 -9.998915e+01 0
1.033034e-02 -9.997606e+01 0
3.526657e-02 -9.997613e+01 0
1.007706e-01 -9.997917e+01 0
3.475531e-01 -4.999259e+01 0
3.475531e-01 -2.650000e-03 0
0.000000e+00 0.000000e+00 0
0.000000e+00 0.000000e+00 0
0.000000e+00 0.000000e+00 0
0.000000e+00 0.000000e+00 0
0.000000e+00 5.885470e+01 0
0.000000e+00 -2.486107e-13 0
0.000000e+00 0.000000e+00 0
0.000000e+00 0.000000e+00 0
0.000000e+00 0.000000e+00 0
0.000000e+00 0.000000e+00 0
0.000000e+00 0.000000e+00 0
0.000000e+00 0.000000e+00 0
0.000000e+00 0.000000e+00 0
0.000000e+00 -5.000000e+01 0
0.000000e+00 -9.999596e+01 0
1.152267e-02 -9.999458e+01 0
2.900516e-02 -1.000082e+02 0
5.371561e-02 -1.000336e+02 0
7.589630e-02 -5.002666e+01 0
7.223927e-02 -2.650000e-03 0
0.000000e+00 0.000000e+00 0
0.000000e+00 0.000000e+00 0
0.000000e+00 0.000000e+00 0
0.000000e+00 0.000000e+00 0
0.000000e+00 5.885470e+01 0
0.000000e+00 -2.486107e-13 0
0.000000e+00 0.000000e+00 0
0.000000e+00 0.000000e+00 0
0.000000e+00 0.000000e+00 0
0.000000e+00 0.000000e+00 0
0.000000e+00 0.000000e+00 0
0.000000e+00 0.000000e+00 0
0.000000e+00 0.000000e+00 0
0.000000e+00 -5.000000e+01 0
0.000000e+00 -1.000010e+02 0
7.360527e-03 -1.000055e+02 0
1.521176e-02 -1.000186e+02 0
1.934101e-02 -1.000264e+02 0
8.469119e-03 -5.001229e+01 0
0.000000e+00 0.000000e+00 0
0.000000e+00 0.000000e+00 0
0.000000e+00 0.000000e+00 0
0.000000e+00 0.000000e+00 0
0.000000e+00 0.000000e+00 0
0.000000e+00 5.885470e+01 0
0.000000e+00 -2.486107e-13 0
0.000000e+00 0.000000e+00 0
0.000000e+00 0.000000e+00 0
0.000000e+00 0.000000e+00 0
0.000000e+00 0.000000e+00 0
0.000000e+00 0.000000e+00 0
0.000000e+00 0.000000e+00 0
0.000000e+00 0.000000e+00 0
0.000000e+00 -5.000000e+01 0
0.000000e+00 -1.000035e+02 0
3.028327e-03 -1.000100e+02 0
4.839328e-03 -1.000202e+02 0
2.250832e-03 -1.000268e+02 0
4.544582e-03 -5.001306e+01 0
0.000000e+00 0.000000e+00 0
0.000000e+00 0.000000e+00 0
0.000000e+00 0.000000e+00 0
0.000000e+00 0.000000e+00 0
0.000000e+00 0.000000e+00 0
0.000000e+00 5.885470e+01 0
0.000000e+00 -2.486107e-13 0
0.000000e+00 0.000000e+00 0
0.000000e+00 0.000000e+00 0
0.000000e+00 0.000000e+00 0
0.000000e+00 0.000000e+00 0
0.000000e+00 0.000000e+00 0
0.000000e+00 0.000000e+00 0
0.000000e+00 0.000000e+00 0
0.000000e+00 -5.000000e+01 0
0.000000e+00 -1.000041e+02 0
-7.335745e-05 -1.000104e+02 0
-1.657830e-03 -1.000179e+02 0
-6.858862e-03 -1.000261e+02 0
-3.019829e-03 -5.001460e+01 0
0.000000e+00 0.000000e+00 0
0.000000e+00 0.000000e+00 0
0.000000e+00 0.000000e+00 0
0.000000e+00 0.000000e+00 0
0.000000e+00 0.000000e+00 0
0.000000e+00 0.000000e+00 0
0.000000e+00 0.000000e+00 0
0.000000e+00 0.000000e+00 0
0.000000e+00 0.000000e+00 0
0.000000e+00 0.000000e+00 0
0.000000e+00 0.000000e+00 0
0.000000e+00 0.000000e+00 0
0.000000e+00 0.000000e+00 0
0.000000e+00 0.000000e+00 0
0.000000e+00 -5.000000e+01 0
0.000000e+00 -1.000034e+02 0
-1.902505e-03 -1.000084e+02 0
-5.262523e-03 -1.000134e+02 0
-1.161881e-02 -1.000254e+02 0
-1.036401e-02 -5.001693e+01 0
0.000000e+00 0.000000e+00 0
0.000000e+00 0.000000e+00 0
0.000000e+00 0.000000e+00 0
0.000000e+00 0.000000e+00 0
0.000000e+00 0.000000e+00 0
0.000000e+00 0.000000e+00 0
0.000000e+00 0.000000e+00 0
0.000000e+00 0.000000e+00 0
0.000000e+00 0.000000e+00 0
0.000000e+00 0.000000e+00 0
0.000000e+00 0.000000e+00 0
0.000000e+00 0.000000e+00 0
0.000000e+00 0.000000e+00 0
0.000000e+00 0.000000e+00 0
0.000000e+00 -5.000000e+01 0
0.000000e+00 -1.000021e+02 0
-2.567943e-03 -1.000051e+02 0
-6.455065e-03 -1.000081e+02 0
-1.293384e-02 -1.000210e+02 0
-2.973236e-02 -5.001587e+01 0
0.000000e+00 0.000000e+00 0
0.000000e+00 0.000000e+00 0
0.000000e+00 0.000000e+00 0
0.000000e+00 0.000000e+00 0
0.000000e+00 0.000000e+00 0
0.000000e+00 0.000000e+00 0
0.000000e+00 0.000000e+00 0
0.000000e+00 0.000000e+00 0
0.000000e+00 0.000000e+00 0
0.000000e+00 0.000000e+00 0
0.000000e+00 0.000000e+00 0
0.000000e+00 0.000000e+00 0
0.000000e+00 0.000000e+00 0
0.000000e+00 0.000000e+00 0
0.000000e+00 -5.000000e+01 0
0.000000e+00 -1.000007e+02 0
-1.942644e-03 -1.000018e+02 0
-4.877558e-03 -1.000030e+02 0
-9.950578e-03 -1.000019e+02 0
-2.569887e-02 -5.000000e+01 0
0.000000e+00 0.000000e+00 0
0.000000e+00 0.000000e+00 0
0.000000e+00 0.000000e+00 0
0.000000e+00 0.000000e+00 0
0.000000e+00 0.000000e+00 0
0.000000e+00 0.000000e+00 0
0.000000e+00 0.000000e+00 0
0.000000e+00 0.000000e+00 0
0.000000e+00 0.000000e+00 0
0.000000e+00 0.000000e+00 0
0.000000e+00 0.000000e+00 0
0.000000e+00 0.000000e+00 0
0.000000e+00 0.000000e+00 0
0.000000e+00 0.000000e+00 0
0.000000e+00 -5.000000e+01 0
0.000000e+00 -1.000000e+02 0
-5.310897e-18 -1.000000e+02 0
-1.365659e-17 -1.000000e+02 0
-2.947659e-17 -1.000000e+02 0
-2.974102e-17 -5.000000e+01 0
0.000000e+00 0.000000e+00 0
0.000000e+00 0.000000e+00 0
0.000000e+00 0.000000e+00 0
0.000000e+00 0.000000e+00 0
0.000000e+00 0.000000e+00 0
0.000000e+00 0.000000e+00 0
0.000000e+00 0.000000e+00 0
</DataArray>
<DataArray Name="Type and Neighbourhood" type="Float64" format="ascii" NumberOfComponents="3">
0.000000e+00 0.000000e+00 0
0.000000e+00 0.000000e+00 0
0.000000e+00 0.000000e+00 0
1.100000e+01 1.000000e+00 0
1.100000e+01 1.000000e+00 0
0.000000e+00 0.000000e+00 0
0.000000e+00 0.000000e+00 0
0.000000e+00 0.000000e+00 0
0.000000e+00 0.000000e+00 0
0.000000e+00 0.000000e+00 0
0.000000e+00 0.000000e+00 0
0.000000e+00 0.000000e+00 0
0.000000e+00 0.000000e+00 0