<?xml version="1.0"?>
<VTKFile type="StructuredGrid">
<StructuredGrid WholeExtent="0 19 0 33 0 0 ">
<Piece Extent="0 19 0 33 0 0 ">
<Points>
<DataArray type="Float64" format="ascii" NumberOfComponents="3">
0.000000e+00 0.000000e+00 0.000000e+00
1.052632e-01 0.000000e+00 0.000000e+00
2.105263e-01 0.000000e+00 0.000000e+00
3.157895e-01 0.000000e+00 0.000000e+00
4.210526e-01 0.000000e+00 0.000000e+00
5.263158e-01 0.000000e+00 0.000000e+00
6.315789e-01 0.000000e+00 0.000000e+00
7.368421e-01 0.000000e+00 0.000000e+00
8.421053e-01 0.000000e+00 0.000000e+00
9.473684e-01 0.000000e+00 0.000000e+00
1.052632e+00 0.000000e+00 0.000000e+00
1.157895e+00 0.000000e+00 0.000000e+00
1.263158e+00 0.000000e+00 0.000000e+00
1.368421e+00 0.000000e+00 0.000000e+00
1.473684e+00 0.000000e+00 0.000000e+00
1.578947e+00 0.000000e+00 0.000000e+00
1.684211e+00 0.000000e+00 0.000000e+00
1.789474e+00 0.000000e+00 0.000000e+00
1.894737e+00 0.000000e+00 0.000000e+00
2.000000e+00 0.000000e+00 0.000000e+00
0.000000e+00 1.060606e-01 0.000000e+00
1.052632e-01 1.060606e-01 0.000000e+00
2.105263e-01 1.060606e-01 0.000000e+00
3.157895e-01 1.060606e-01 0.000000e+00
4.210526e-01 1.060606e-01 0.000000e+00
5.263158e-01 1.060606e-01 0.000000e+00
6.315789e-01 1.060606e-01 0.000000e+00
7.368421e-01 1.060606e-01 0.000000e+00
8.421053e-01 1.060606e-01 0.000000e+00
9.473684e-01 1.060606e-01 0.000000e+00
1.052632e+00 1.060606e-01 0.000000e+00
1.157895e+00 1.060606e-01 0.000000e+00
1.263158e+00 1.060606e-01 0.000000e+00
1.368421e+00 1.060606e-01 0.000000e+00
1.473684e+00 1.060606e-01 0.000000e+00
1.578947e+00 1.060606e-01 0.000000e+00
1.684211e+00 1.060606e-01 0.000000e+00
1.789474e+00 1.060606e-01 0.000000e+00
1.894737e+00 1.060606e-01 0.000000e+00
2.000000e+00 1.060606e-01 0.000000e+00
0.000000e+00 2.121212e-01 0.000000e+00
1.052632e-01 2.121212e-01 0.000000e+00
2.105263e-01 2.121212e-01 0.000000e+00
3.157895e-01 2.121212e-01 0.000000e+00
4.210526e-01 2.121212e-01 0.000000e+00
5.263158e-01 2.121212e-01 0.000000e+00
6.315789e-01 2.121212e-01 0.000000e+00
7.368421e-01 2.121212e-01 0.000000e+00
8.421053e-01 2.121212e-01 0.000000e+00
9.473684e-01 2.121212e-01 0.000000e+00
1.052632e+00 2.121212e-01 0.000000e+00
1.157895e+00 2.121212e-01 0.000000e+00
1.263158e+00 2.121212e-01 0.000000e+00
1.368421e+00 2.121212e-01 0.000000e+00
1.473684e+00 2.121212e-01 0.000000e+00
1.578947e+00 2.121212e-01 0.000000e+00
1.684211e+00 2.121212e-01 0.000000e+00
1.789474e+00 2.121212e-01 0.000000e+00
1.894737e+00 2.121212e-01 0.000000e+00
2.000000e+00 2.121212e-01 0.000000e+00
0.000000e+00 3.181818e-01 0.000000e+00
1.052632e-01 3.181818e-01 0.000000e+00
2.105263e-01 3.181818e-01 0.000000e+00
3.157895e-01 3.181818e-01 0.000000e+00
4.210526e-01 3.181818e-01 0.000000e+00
5.263158e-01 3.181818e-01 0.000000e+00
6.315789e-01 3.181818e-01 0.000000e+00
7.368421e-01 3.181818e-01 0.000000e+00
8.421053e-01 3.181818e-01 0.000000e+00
9.473684e-01 3.181818e-01 0.000000e+00
1.052632e+00 3.181818e-01 0.000000e+00
1.157895e+00 3.181818e-01 0.000000e+00
1.263158e+00 3.181818e-01 0.000000e+00
1.368421e+00 3.181818e-01 0.000000e+00
1.473684e+00 3.181818e-01 0.000000e+00
1.578947e+00 3.181818e-01 0.000000e+00
1.684211e+00 3.181818e-01 0.000000e+00
1.789474e+00 3.181818e-01 0.000000e+00
1.894737e+00 3.181818e-01 0.000000e+00
2.000000e+00 3.181818e-01 0.000000e+00
0.000000e+00 4.242424e-01 0.000000e+00
1.052632e-01 4.242424e-01 0.000000e+00
2.105263e-01 4.242424e-01 0.000000e+00
3.157895e-01 4.242424e-01 0.000000e+00
4.210526e-01 4.242424e-01 0.000000e+00
5.263158e-01 4.242424e-01 0.000000e+00
6.315789e-01 4.242424e-01 0.000000e+00
7.368421e-01 4.242424e-01 0.000000e+00
8.421053e-01 4.242424e-01 0.000000e+00
9.473684e-01 4.242424e-01 0.000000e+00
1.052632e+00 4.242424e-01 0.000000e+00
1.157895e+00 4.242424e-01 0.000000e+00
1.263158e+00 4.242424e-01 0.000000e+00
1.368421e+00 4.242424e-01 0.000000e+00
1.473684e+00 4.242424e-01 0.000000e+00
1.578947e+00 4.242424e-01 0.000000e+00
1.684211e+00 4.242424e-01 0.000000e+00
1.789474e+00 4.242424e-01 0.000000e+00
1.894737e+00 4.242424e-01 0.000000e+00
2.000000e+00 4.242424e-01 0.000000e+00
0.000000e+00 5.303030e-01 0.000000e+00
1.052632e-01 5.303030e-01 0.000000e+00
2.105263e-01 5.303030e-01 0.000000e+00
3.157895e-01 5.303030e-01 0.000000e+00
4.210526e-01 5.303030e-01 0.000000e+00
5.263158e-01 5.303030e-01 0.000000e+00
6.315789e-01 5.303030e-01 0.000000e+00
7.368421e-01 5.303030e-01 0.000000e+00
8.421053e-01 5.303030e-01 0.000000e+00
9.473684e-01 5.303030e-01 0.000000e+00
1.052632e+00 5.303030e-01 0.000000e+00
1.157895e+00 5.303030e-01 0.000000e+00
1.263158e+00 5.303030e-01 0.000000e+00
1.368421e+00 5.303030e-01 0.000000e+00
1.473684e+00 5.303030e-01 0.000000e+00
1.578947e+00 5.303030e-01 0.000000e+00
1.684211e+00 5.303030e-01 0.000000e+00
1.789474e+00 5.303030e-01 0.000000e+00
1.894737e+00 5.303030e-01 0.000000e+00
2.000000e+00 5.303030e-01 0.000000e+00
0.000000e+00 6.363636e-01 0.000000e+00
1.052632e-01 6.363636e-01 0.000000e+00
2.105263e-01 6.363636e-01 0.000000e+00
3.157895e-01 6.363636e-01 0.000000e+00
4.210526e-01 6.363636e-01 0.000000e+00
5.263158e-01 6.363636e-01 0.000000e+00
6.315789e-01 6.363636e-01 0.000000e+00
7.368421e-01 6.363636e-01 0.000000e+00
8.421053e-01 6.363636e-01 0.000000e+00
9.473684e-01 6.363636e-01 0.000000e+00
1.052632e+00 6.363636e-01 0.000000e+00
1.157895e+00 6.363636e-01 0.000000e+00
1.263158e+00 6.363636e-01 0.000000e+00
1.368421e+00 6.363636e-01 0.000000e+00
1.473684e+00 6.363636e-01 0.000000e+00
1.578947e+00 6.363636e-01 0.000000e+00
1.684211e+00 6.363636e-01 0.000000e+00
1.789474e+00 6.363636e-01 0.000000e+00
1.894737e+00 6.363636e-01 0.000000e+00
2.000000e+00 6.363636e-01 0.000000e+00
0.000000e+00 7.424242e-01 0.000000e+00
1.052632e-01 7.424242e-01 0.000000e+00
2.105263e-01 7.424242e-01 0.000000e+00
3.157895e-01 7.424242e-01 0.000000e+00
4.210526e-01 7.424242e-01 0.000000e+00
5.263158e-01 7.424242e-01 0.000000e+00
6.315789e-01 7.424242e-01 0.000000e+00
7.368421e-01 7.424242e-01 0.000000e+00
8.421053e-01 7.424242e-01 0.000000e+00
9.473684e-01 7.424242e-01 0.000000e+00
1.052632e+00 7.424242e-01 0.000000e+00
1.157895e+00 7.424242e-01 0.000000e+00
1.263158e+00 7.424242e-01 0.000000e+00
1.368421e+00 7.424242e-01 0.000000e+00
1.473684e+00 7.424242e-01 0.000000e+00
1.578947e+00 7.424242e-01 0.000000e+00
1.684211e+00 7.424242e-01 0.000000e+00
1.789474e+00 7.424242e-01 0.000000e+00
1.894737e+00 7.424242e-01 0.000000e+00
2.000000e+00 7.424242e-01 0.000000e+00
0.000000e+00 8.484848e-01 0.000000e+00
1.052632e-01 8.484848e-01 0.000000e+00
2.105263e-01 8.484848e-01 0.000000e+00
3.157895e-01 8.484848e-01 0.000000e+00
4.210526e-01 8.484848e-01 0.000000e+00
5.263158e-01 8.484848e-01 0.000000e+00
6.315789e-01 8.484848e-01 0.000000e+00
7.368421e-01 8.484848e-01 0.000000e+00
8.421053e-01 8.484848e-01 0.000000e+00
9.473684e-01 8.484848e-01 0.000000e+00
1.052632e+00 8.484848e-01 0.000000e+00
1.157895e+00 8.484848e-01 0.000000e+00
1.263158e+00 8.484848e-01 0.000000e+00
1.368421e+00 8.484848e-01 0.000000e+00
1.473684e+00 8.484848e-01 0.000000e+00
1.578947e+00 8.484848e-01 0.000000e+00
1.684211e+00 8.484848e-01 0.000000e+00
1.789474e+00 8.484848e-01 0.000000e+00
1.894737e+00 8.484848e-01 0.000000e+00
2.000000e+00 8.484848e-01 0.000000e+00
0.000000e+00 9.545455e-01 0.000000e+00
1.052632e-01 9.545455e-01 0.000000e+00
2.105263e-01 9.545455e-01 0.000000e+00
3.157895e-01 9.545455e-01 0.000000e+00
4.210526e-01 9.545455e-01 0.000000e+00
5.263158e-01 9.545455e-01 0.000000e+00
6.315789e-01 9.545455e-01 0.000000e+00
7.368421e-01 9.545455e-01 0.000000e+00
8.421053e-01 9.545455e-01 0.000000e+00
9.473684e-01 9.545455e-01 0.000000e+00
1.052632e+00 9.545455e-01 0.000000e+00
1.157895e+00 9.545455e-01 0.000000e+00
1.263158e+00 9.545455e-01 0.000000e+00
1.368421e+00 9.545455e-01 0.000000e+00
1.473684e+00 9.545455e-01 0.000000e+00
1.578947e+00 9.545455e-01 0.000000e+00
1.684211e+00 9.545455e-01 0.000000e+00
1.789474e+00 9.545455e-01 0.000000e+00
1.894737e+00 9.545455e-01 0.000000e+00
2.000000e+00 9.545455e-01 0.000000e+00
0.000000e+00 1.060606e+00 0.000000e+00
1.052632e-01 1.060606e+00 0.000000e+00
2.105263e-01 1.060606e+00 0.000000e+00
3.157895e-01 1.060606e+00 0.000000e+00
4.210526e-01 1.060606e+00 0.000000e+00
5.263158e-01 1.060606e+00 0.000000e+00
6.315789e-01 1.060606e+00 0.000000e+00
7.368421e-01 1.060606e+00 0.000000e+00
8.421053e-01 1.060606e+00 0.000000e+00
9.473684e-01 1.060606e+00 0.000000e+00
1.052632e+00 1.060606e+00 0.000000e+00
1.157895e+00 1.060606e+00 0.000000e+00
1.263158e+00 1.060606e+00 0.000000e+00
1.368421e+00 1.060606e+00 0.000000e+00
1.473684e+00 1.060606e+00 0.000000e+00
1.578947e+00 1.060606e+00 0.000000e+00
1.684211e+00 1.060606e+00 0.000000e+00
1.789474e+00 1.060606e+00 0.000000e+00
1.894737e+00 1.060606e+00 0.000000e+00
2.000000e+00 1.060606e+00 0.000000e+00
0.000000e+00 1.166667e+00 0.000000e+00
1.052632e-01 1.166667e+00 0.000000e+00
2.105263e-01 1.166667e+00 0.000000e+00
3.157895e-01 1.166667e+00 0.000000e+00
4.210526e-01 1.166667e+00 0.000000e+00
5.263158e-01 1.166667e+00 0.000000e+00
6.315789e-01 1.166667e+00 0.000000e+00
7.368421e-01 1.166667e+00 0.000000e+00
8.421053e-01 1.166667e+00 0.000000e+00
9.473684e-01 1.166667e+00 0.000000e+00
1.052632e+00 1.166667e+00 0.000000e+00
1.157895e+00 1.166667e+00 0.000000e+00
1.263158e+00 1.166667e+00 0.000000e+00
1.368421e+00 1.166667e+00 0.000000e+00
1.473684e+00 1.166667e+00 0.000000e+00
1.578947e+00 1.166667e+00 0.000000e+00
1.684211e+00 1.166667e+00 0.000000e+00
1.789474e+00 1.166667e+00 0.000000e+00
1.894737e+00 1.166667e+00 0.000000e+00
2.000000e+00 1.166667e+00 0.000000e+00
0.000000e+00 1.272727e+00 0.000000e+00
1.052632e-01 1.272727e+00 0.000000e+00
2.105263e-01 1.272727e+00 0.000000e+00
3.157895e-01 1.272727e+00 0.000000e+00
4.210526e-01 1.272727e+00 0.000000e+00
5.263158e-01 1.272727e+00 0.000000e+00
6.315789e-01 1.272727e+00 0.000000e+00
7.368421e-01 1.272727e+00 0.000000e+00
8.421053e-01 1.272727e+00 0.000000e+00
9.473684e-01 1.272727e+00 0.000000e+00
1.052632e+00 1.272727e+00 0.000000e+00
[...]
<PointData>
<DataArray Name="Velocity" type="Float64" format="ascii" NumberOfComponents="3">
0.000000e+00 0.000000e+00 0
0.000000e+00 0.000000e+00 0
0.000000e+00 0.000000e+00 0
0.000000e+00 0.000000e+00 0
0.000000e+00 0.000000e+00 0
0.000000e+00 0.000000e+00 0
0.000000e+00 0.000000e+00 0
0.000000e+00 0.000000e+00 0
0.000000e+00 0.000000e+00 0
0.000000e+00 0.000000e+00 0
0.000000e+00 0.000000e+00 0
1.689876e-16 0.000000e+00 0
0.000000e+00 0.000000e+00 0
0.000000e+00 0.000000e+00 0
0.000000e+00 0.000000e+00 0
8.387323e-17 0.000000e+00 0
0.000000e+00 0.000000e+00 0
0.000000e+00 0.000000e+00 0
0.000000e+00 0.000000e+00 0
0.000000e+00 0.000000e+00 0
0.000000e+00 0.000000e+00 0
-3.240367e+01 3.325832e+01 0
-4.197176e+01 5.427270e+00 0
-4.684900e+01 -6.857437e+00 0
-5.342136e+01 -4.753218e+00 0
-5.278986e+01 -3.988806e+00 0
-4.462958e+01 -7.675677e+00 0
-3.588319e+01 -1.279688e+01 0
-2.053668e+01 -1.242357e+01 0
-9.690740e+00 -1.072766e+01 0
1.917159e+00 -1.013448e+01 0
1.137170e+01 -9.655755e+00 0
2.307586e+01 -1.022375e+01 0
3.200868e+01 -6.762696e+00 0
3.628013e+01 -2.192666e+00 0
3.587984e+01 2.053351e+00 0
3.143820e+01 5.368611e+00 0
2.381826e+01 9.358460e+00 0
1.368554e+01 1.211184e+01 0
0.000000e+00 -2.486107e-14 0
0.000000e+00 0.000000e+00 0
-2.139386e+01 4.228973e+01 0
-3.754496e+01 1.455477e+01 0
-5.109539e+01 1.153634e+01 0
-6.181202e+01 5.985863e+00 0
-5.990352e+01 -8.858386e+00 0
-4.381234e+01 -1.703475e+01 0
-3.721196e+01 -2.427543e+01 0
-2.226351e+01 -2.639088e+01 0
-9.070694e+00 -2.262394e+01 0
2.342878e+00 -2.122201e+01 0
1.411949e+01 -2.131900e+01 0
2.662611e+01 -2.079331e+01 0
3.554743e+01 -1.330430e+01 0
3.945455e+01 -3.900492e+00 0
3.840268e+01 4.878610e+00 0
3.302389e+01 1.215296e+01 0
2.399787e+01 1.788715e+01 0
1.381408e+01 2.399870e+01 0
0.000000e+00 -5.966656e-14 0
0.000000e+00 0.000000e+00 0
-1.973412e+01 7.108771e+01 0
-4.374475e+01 3.535382e+01 0
-6.610460e+01 1.759347e+01 0
-6.908797e+01 4.121635e+00 0
-6.714754e+01 -2.212485e+01 0
-4.062751e+01 -3.053914e+01 0
-3.625844e+01 -3.450895e+01 0
-2.182479e+01 -4.077803e+01 0
-8.126398e+00 -3.552046e+01 0
4.035719e+00 -3.350035e+01 0
1.679831e+01 -3.412296e+01 0
3.001428e+01 -3.181402e+01 0
3.887507e+01 -1.968831e+01 0
4.239472e+01 -5.069545e+00 0
4.065863e+01 8.532724e+00 0
3.447271e+01 1.988255e+01 0
2.473989e+01 2.871380e+01 0
1.253147e+01 3.629151e+01 0
0.000000e+00 -8.204152e-14 0
0.000000e+00 0.000000e+00 0
-1.080828e+01 8.636588e+01 0
-1.516329e+01 6.127654e+01 0
-3.216030e+01 3.707156e+01 0
-3.449493e+01 7.036696e+00 0
-3.505344e+01 -3.749013e+01 0
-3.073804e+01 -4.811353e+01 0
-3.259420e+01 -4.322059e+01 0
-1.954407e+01 -5.473604e+01 0
-6.312301e+00 -4.868037e+01 0
5.957991e+00 -4.633554e+01 0
1.893128e+01 -4.749436e+01 0
3.244805e+01 -4.303733e+01 0
4.081495e+01 -2.577853e+01 0
4.387861e+01 -5.697561e+00 0
4.147573e+01 1.286064e+01 0
3.485512e+01 2.819229e+01 0
2.493812e+01 3.999461e+01 0
1.271316e+01 4.892602e+01 0
0.000000e+00 -1.093887e-13 0
0.000000e+00 0.000000e+00 0
-1.055600e+01 8.636588e+01 0
0.000000e+00 5.686759e+01 0
0.000000e+00 3.707156e+01 0
0.000000e+00 9.628119e+00 0
0.000000e+00 -5.181365e+01 0
-1.966785e+01 -6.150875e+01 0
-2.730797e+01 -4.578459e+01 0
-1.593666e+01 -6.725903e+01 0
-3.884849e+00 -6.121572e+01 0
7.648411e+00 -5.893517e+01 0
2.013293e+01 -6.081370e+01 0
3.330669e+01 -5.386348e+01 0
4.025111e+01 -3.120547e+01 0
4.273650e+01 -5.735333e+00 0
3.934502e+01 1.762457e+01 0
3.329705e+01 3.654545e+01 0
2.403214e+01 5.102350e+01 0
1.248546e+01 6.141856e+01 0
0.000000e+00 -1.342498e-13 0
0.000000e+00 0.000000e+00 0
-6.696886e+00 6.316874e+01 0
0.000000e+00 0.000000e+00 0
0.000000e+00 0.000000e+00 0
0.000000e+00 0.000000e+00 0
0.000000e+00 -5.181365e+01 0
-8.130998e+00 -5.730611e+01 0
-2.016919e+01 -4.695569e+01 0
-1.118479e+01 -7.833662e+01 0
-1.220665e+00 -7.244411e+01 0
8.780747e+00 -7.053527e+01 0
2.001288e+01 -7.334702e+01 0
3.202836e+01 -6.330792e+01 0
3.597155e+01 -3.527978e+01 0
3.772287e+01 -4.784608e+00 0
3.350853e+01 2.237159e+01 0
2.984000e+01 4.362118e+01 0
2.192287e+01 6.096386e+01 0
1.156423e+01 7.314022e+01 0
0.000000e+00 -1.640830e-13 0
0.000000e+00 0.000000e+00 0
-7.520129e-01 6.368935e+01 0
0.000000e+00 0.000000e+00 0
0.000000e+00 0.000000e+00 0
0.000000e+00 0.000000e+00 0
0.000000e+00 0.000000e+00 0
0.000000e+00 -4.887433e-01 0
-9.026088e+00 -4.565434e+01 0
-5.454226e+00 -8.637474e+01 0
1.228390e+00 -8.133251e+01 0
8.965545e+00 -8.032958e+01 0
1.815212e+01 -8.423743e+01 0
2.789753e+01 -6.994304e+01 0
2.669935e+01 -3.694311e+01 0
1.642291e+01 -3.253649e+00 0
1.485247e+01 2.554844e+01 0
2.501498e+01 4.820015e+01 0
1.836657e+01 6.943771e+01 0
9.861643e+00 8.350752e+01 0
0.000000e+00 -1.839719e-13 0
0.000000e+00 0.000000e+00 0
-4.090272e-01 6.392645e+01 0
-1.737060e-01 0.000000e+00 0
0.000000e+00 0.000000e+00 0
0.000000e+00 0.000000e+00 0
0.000000e+00 0.000000e+00 0
0.000000e+00 0.000000e+00 0
-2.462751e+00 -4.507058e+01 0
-1.458217e+00 -8.867720e+01 0
2.551277e+00 -8.697312e+01 0
7.847112e+00 -8.758721e+01 0
1.425561e+01 -9.242243e+01 0
2.020322e+01 -7.191990e+01 0
1.408128e+01 -2.371823e+01 0
3.132976e+00 -5.000000e-05 0
2.460717e-14 9.746322e+00 0
1.166535e+01 4.328114e+01 0
1.404517e+01 7.624872e+01 0
7.719646e+00 9.164593e+01 0
0.000000e+00 -2.088330e-13 0
0.000000e+00 0.000000e+00 0
-5.636074e-01 9.849025e+01 0
-5.636074e-01 3.439393e+01 0
0.000000e+00 0.000000e+00 0
0.000000e+00 0.000000e+00 0
0.000000e+00 0.000000e+00 0
0.000000e+00 -5.000000e-05 0
-1.324885e+00 -4.615117e+01 0
-9.338123e-03 -9.140013e+01 0
2.564268e+00 -9.070833e+01 0
5.708086e+00 -9.212258e+01 0
8.804167e+00 -9.668714e+01 0
9.394806e+00 -6.976739e+01 0
4.110205e+00 -1.974355e+01 0
3.753841e+00 -5.000000e-05 0
-1.291989e-15 9.746322e+00 0
-6.124843e-01 3.789310e+01 0
7.778174e+00 7.352859e+01 0
4.736869e+00 9.765909e+01 0
0.000000e+00 -2.187774e-13 0
0.000000e+00 0.000000e+00 0
-9.815261e-01 9.888311e+01 0
-9.815261e-01 3.439393e+01 0
0.000000e+00 0.000000e+00 0
0.000000e+00 0.000000e+00 0
0.000000e+00 0.000000e+00 0
0.000000e+00 -5.000000e-05 0
-3.569087e-01 -4.642621e+01 0
3.374780e-01 -9.262589e+01 0
2.012671e+00 -9.273386e+01 0
3.675430e+00 -9.387438e+01 0
4.150467e+00 -9.613708e+01 0
4.106455e-01 -6.719038e+01 0
-1.918436e+01 -1.839354e+01 0
0.000000e+00 -5.233909e-20 0
-7.948869e-15 -3.500000e-04 0
-3.768266e+00 2.533646e+01 0
4.856928e-01 7.111506e+01 0
1.477052e+00 9.948303e+01 0
0.000000e+00 -2.287218e-13 0
0.000000e+00 0.000000e+00 0
-1.275951e+00 9.947921e+01 0
-1.275951e+00 3.439393e+01 0
0.000000e+00 0.000000e+00 0
0.000000e+00 0.000000e+00 0
0.000000e+00 0.000000e+00 0
0.000000e+00 -5.000000e-05 0
-1.926346e+00 -4.689723e+01 0
-1.523302e-01 -9.383407e+01 0
1.476031e+00 -9.407157e+01 0
2.861167e+00 -9.427658e+01 0
3.672084e+00 -9.339763e+01 0
3.984539e+00 -4.625578e+01 0
-1.427066e+01 -5.000000e-05 0
0.000000e+00 0.000000e+00 0
-1.053822e-14 -3.500000e-04 0
-4.995781e+00 2.405292e+01 0
-3.142019e+00 6.843621e+01 0
-3.931010e-01 9.814846e+01 0
0.000000e+00 -2.287218e-13 0
0.000000e+00 0.000000e+00 0
-1.365972e+00 1.001687e+02 0
-1.365972e+00 3.439393e+01 0
0.000000e+00 0.000000e+00 0
0.000000e+00 0.000000e+00 0
0.000000e+00 0.000000e+00 0
0.000000e+00 -5.000000e-05 0
-2.277622e+00 -4.820682e+01 0
-3.733126e-01 -9.604720e+01 0
1.187377e+00 -9.577019e+01 0
2.627625e+00 -9.608707e+01 0
4.340669e+00 -9.726897e+01 0
7.545180e+00 -4.911171e+01 0
7.545180e+00 -5.000000e-05 0
0.000000e+00 0.000000e+00 0
-1.056212e-14 -3.500000e-04 0
-5.007111e+00 2.365202e+01 0
-3.391480e+00 6.666087e+01 0
-9.435245e-01 9.631721e+01 0
0.000000e+00 -2.187774e-13 0
0.000000e+00 0.000000e+00 0
-1.176732e+00 1.008555e+02 0
-1.176732e+00 3.439393e+01 0
0.000000e+00 0.000000e+00 0
0.000000e+00 0.000000e+00 0
0.000000e+00 0.000000e+00 0
0.000000e+00 -5.000000e-05 0
-8.479312e-01 -4.879845e+01 0
-5.798835e-02 -9.730780e+01 0
1.020661e+00 -9.709524e+01 0
2.118352e+00 -9.745376e+01 0
3.240479e+00 -9.835243e+01 0
3.871507e+00 -4.948457e+01 0
3.874087e+00 -5.000000e-05 0
0.000000e+00 0.000000e+00 0
-6.970878e-15 -3.500000e-04 0
-3.304636e+00 2.269720e+01 0
-2.464133e+00 6.461398e+01 0
-7.731421e-01 9.473129e+01 0
0.000000e+00 -2.187774e-13 0
0.000000e+00 0.000000e+00 0
-1.110857e+00 1.013544e+02 0
2.079712e+01 3.439393e+01 0
0.000000e+00 0.000000e+00 0
0.000000e+00 0.000000e+00 0
0.000000e+00 0.000000e+00 0
0.000000e+00 -5.000000e-05 0
-3.215183e-01 -4.900627e+01 0
1.136505e-01 -9.793347e+01 0
8.352126e-01 -9.796301e+01 0
1.585967e+00 -9.832371e+01 0
2.245515e+00 -9.903540e+01 0
2.728886e+00 -4.975011e+01 0
2.731467e+00 -2.650000e-03 0
0.000000e+00 0.000000e+00 0
-1.738688e-15 -3.500000e-04 0
-8.242478e-01 2.302113e+01 0
-1.070908e+00 6.432618e+01 0
-3.482344e-01 9.383441e+01 0
0.000000e+00 -2.187774e-13 0
0.000000e+00 0.000000e+00 0
-1.092527e+00 7.990086e+01 0
2.081545e+01 1.231999e+01 0
0.000000e+00 0.000000e+00 0
0.000000e+00 0.000000e+00 0
0.000000e+00 0.000000e+00 0
0.000000e+00 -5.000000e-05 0
-4.027564e-01 -4.924739e+01 0
6.321060e-02 -9.848378e+01 0
6.203131e-01 -9.857871e+01 0
1.145854e+00 -9.887474e+01 0
1.537900e+00 -9.950401e+01 0
1.783987e+00 -4.997420e+01 0
1.783987e+00 -2.650000e-03 0
0.000000e+00 0.000000e+00 0
-3.461834e-16 -3.500000e-04 0
-1.641128e-01 2.313487e+01 0
-1.089632e+00 6.432351e+01 0
-2.119878e-01 9.365226e+01 0
0.000000e+00 -2.287218e-13 0
0.000000e+00 0.000000e+00 0
-8.632501e-01 8.038122e+01 0
-8.632501e-01 1.231999e+01 0
0.000000e+00 0.000000e+00 0
0.000000e+00 0.000000e+00 0
0.000000e+00 0.000000e+00 0
0.000000e+00 -5.000000e-05 0
-5.057985e-01 -4.948120e+01 0
-3.141742e-02 -9.896972e+01 0
4.375366e-01 -9.905386e+01 0
8.410112e-01 -9.924824e+01 0
1.132371e+00 -9.967837e+01 0
1.236402e+00 -4.999806e+01 0
1.236402e+00 -2.650000e-03 0
0.000000e+00 0.000000e+00 0
0.000000e+00 0.000000e+00 0
0.000000e+00 2.554332e+01 0
-1.880871e+00 6.607945e+01 0
-3.038556e-01 9.285224e+01 0
0.000000e+00 -2.187774e-13 0
0.000000e+00 0.000000e+00 0
-6.183308e-01 8.077065e+01 0
-6.183308e-01 1.231999e+01 0
0.000000e+00 0.000000e+00 0
0.000000e+00 0.000000e+00 0
0.000000e+00 0.000000e+00 0
0.000000e+00 -5.000000e-05 0
-3.674773e-01 -4.973838e+01 0
-5.356908e-02 -9.944727e+01 0
3.212983e-01 -9.945775e+01 0
6.501528e-01 -9.957484e+01 0
9.099289e-01 -9.990240e+01 0
1.037787e+00 -5.007902e+01 0
1.037787e+00 -2.650000e-03 0
0.000000e+00 0.000000e+00 0
-1.206381e-15 0.000000e+00 0
-5.719010e-01 2.478428e+01 0
-1.765966e+00 6.451205e+01 0
-2.159662e-01 9.188559e+01 0
0.000000e+00 -2.187774e-13 0
0.000000e+00 0.000000e+00 0
-2.276654e-01 8.100424e+01 0
-2.276654e-01 1.231999e+01 0
0.000000e+00 0.000000e+00 0
0.000000e+00 0.000000e+00 0
0.000000e+00 0.000000e+00 0
0.000000e+00 -5.000000e-05 0
-3.356094e-01 -4.981313e+01 0
-6.663079e-02 -9.967936e+01 0
2.519366e-01 -9.976291e+01 0
5.296837e-01 -9.984133e+01 0
7.315897e-01 -1.000689e+02 0
7.461321e-01 -5.012689e+01 0
7.461321e-01 -2.650000e-03 0
0.000000e+00 0.000000e+00 0
-1.206381e-15 2.616858e+01 0
-5.719010e-01 5.128687e+01 0
-1.464928e+00 6.410540e+01 0
-8.683747e-02 9.108562e+01 0
0.000000e+00 -2.187774e-13 0
0.000000e+00 0.000000e+00 0
2.510182e-01 8.100004e+01 0
2.510182e-01 1.231999e+01 0
0.000000e+00 0.000000e+00 0
0.000000e+00 0.000000e+00 0
0.000000e+00 0.000000e+00 0
0.000000e+00 -5.000000e-05 0
-2.960253e-01 -5.002393e+01 0
-6.870645e-02 -1.000538e+02 0
2.242746e-01 -1.000586e+02 0
4.864518e-01 -1.000581e+02 0
6.510809e-01 -1.001205e+02 0
5.873906e-01 -5.009367e+01 0
5.873906e-01 -2.650000e-03 0
0.000000e+00 0.000000e+00 0
0.000000e+00 0.000000e+00 0
0.000000e+00 2.554332e+01 0
-1.483047e+00 6.398672e+01 0
-2.975008e-01 9.051373e+01 0
0.000000e+00 -2.187774e-13 0
0.000000e+00 0.000000e+00 0
6.998464e-01 8.075132e+01 0
6.998464e-01 1.231999e+01 0
0.000000e+00 0.000000e+00 0
0.000000e+00 0.000000e+00 0
0.000000e+00 0.000000e+00 0
0.000000e+00 -5.000000e-05 0
-9.805044e-02 -5.006141e+01 0
-7.743346e-02 -1.002228e+02 0
2.281451e-01 -1.003223e+02 0
5.424935e-01 -1.002714e+02 0
7.475693e-01 -1.001706e+02 0
7.865474e-01 -5.006272e+01 0
2.941354e-01 -2.650000e-03 0
0.000000e+00 0.000000e+00 0
0.000000e+00 0.000000e+00 0
0.000000e+00 2.554332e+01 0
-2.200227e+00 6.354818e+01 0
-1.201339e+00 8.980361e+01 0
0.000000e+00 -2.287218e-13 0
0.000000e+00 0.000000e+00 0
1.051981e+00 8.029489e+01 0
1.051981e+00 1.231999e+01 0
0.000000e+00 0.000000e+00 0
0.000000e+00 0.000000e+00 0
0.000000e+00 0.000000e+00 0
0.000000e+00 -5.000000e-05 0
-8.862432e-02 -5.007083e+01 0
-3.022608e-01 -1.004086e+02 0
2.231728e-01 -1.006832e+02 0
7.097034e-01 -1.005815e+02 0
1.022649e+00 -1.003664e+02 0
1.041671e+00 -5.013030e+01 0
0.000000e+00 0.000000e+00 0
0.000000e+00 0.000000e+00 0
0.000000e+00 0.000000e+00 0
0.000000e+00 2.554332e+01 0
-3.012534e+00 6.320528e+01 0
-3.837330e+00 8.852185e+01 0
0.000000e+00 -2.187774e-13 0
0.000000e+00 0.000000e+00 0
1.269250e+00 7.969137e+01 0
1.269250e+00 1.231999e+01 0
0.000000e+00 0.000000e+00 0
0.000000e+00 0.000000e+00 0
0.000000e+00 0.000000e+00 0
0.000000e+00 -5.000000e-05 0
-8.152234e-02 -4.987584e+01 0
-8.532590e-01 -1.005667e+02 0
2.555124e-01 -1.013419e+02 0
1.053364e+00 -1.010769e+02 0
1.574881e+00 -1.005051e+02 0
1.532233e+00 -5.007923e+01 0
0.000000e+00 0.000000e+00 0
0.000000e+00 0.000000e+00 0
0.000000e+00 0.000000e+00 0
0.000000e+00 2.554332e+01 0
-1.005911e+01 6.461087e+01 0
-8.206851e+00 8.699991e+01 0
0.000000e+00 -1.988885e-13 0
0.000000e+00 0.000000e+00 0
1.339120e+00 7.901602e+01 0
1.339120e+00 1.231999e+01 0
0.000000e+00 0.000000e+00 0
0.000000e+00 0.000000e+00 0
0.000000e+00 0.000000e+00 0
0.000000e+00 -5.000000e-05 0
-4.786952e-02 -4.932657e+01 0
-6.107276e-01 -1.007815e+02 0
5.862918e-01 -1.026043e+02 0
1.677740e+00 -1.019108e+02 0
2.562179e+00 -1.008489e+02 0
2.596213e+00 -5.008733e+01 0
1.613239e+00 0.000000e+00 0
0.000000e+00 0.000000e+00 0
0.000000e+00 0.000000e+00 0
0.000000e+00 2.554332e+01 0
-9.959896e+00 6.170528e+01 0
-8.673588e+00 7.875282e+01 0
0.000000e+00 -1.789997e-13 0
0.000000e+00 0.000000e+00 0
1.285358e+00 7.834210e+01 0
1.285358e+00 1.231999e+01 0
0.000000e+00 0.000000e+00 0
0.000000e+00 0.000000e+00 0
0.000000e+00 0.000000e+00 0
0.000000e+00 0.000000e+00 0
0.000000e+00 -5.000045e+01 0
3.494798e-04 -1.019540e+02 0
1.044264e+00 -1.037043e+02 0
2.512432e+00 -1.030678e+02 0
4.195674e+00 -1.014438e+02 0
4.398771e+00 -2.296006e+02 0
4.398771e+00 -1.794738e+02 0
0.000000e+00 0.000000e+00 0
0.000000e+00 0.000000e+00 0
0.000000e+00 2.554332e+01 0
-2.971523e+00 6.360984e+01 0
-2.782012e+00 7.725957e+01 0
0.000000e+00 -1.591108e-13 0
0.000000e+00 0.000000e+00 0
1.171831e+00 7.772093e+01 0
1.171831e+00 1.231999e+01 0
0.000000e+00 0.000000e+00 0
0.000000e+00 0.000000e+00 0
0.000000e+00 0.000000e+00 0
0.000000e+00 0.000000e+00 0
0.000000e+00 -5.000000e+01 0
0.000000e+00 -1.026514e+02 0
1.173343e+00 -1.052800e+02 0
3.129726e+00 -1.050861e+02 0
6.199335e+00 -1.027628e+02 0
7.658995e+00 -2.297791e+02 0
7.658995e+00 -1.794738e+02 0
0.000000e+00 0.000000e+00 0
0.000000e+00 0.000000e+00 0
0.000000e+00 2.554332e+01 0
-1.446359e+00 6.165017e+01 0
2.142927e+00 7.589462e+01 0
0.000000e+00 -1.690552e-13 0
0.000000e+00 0.000000e+00 0
1.108742e+00 7.716140e+01 0
1.108742e+00 1.231999e+01 0
0.000000e+00 0.000000e+00 0
0.000000e+00 0.000000e+00 0
0.000000e+00 0.000000e+00 0
0.000000e+00 0.000000e+00 0
0.000000e+00 -5.000000e+01 0
0.000000e+00 -1.033521e+02 0
6.738687e-01 -1.070740e+02 0
2.618682e+00 -1.081318e+02 0
7.214310e+00 -1.060074e+02 0
1.201513e+01 -2.310713e+02 0
1.201513e+01 -1.794738e+02 0
0.000000e+00 0.000000e+00 0
0.000000e+00 0.000000e+00 0
0.000000e+00 0.000000e+00 0
0.000000e+00 3.513192e+01 0
3.457759e+00 7.643888e+01 0
0.000000e+00 -1.740275e-13 0
0.000000e+00 0.000000e+00 0
1.291648e+00 7.660379e+01 0
1.291648e+00 1.231999e+01 0
0.000000e+00 0.000000e+00 0
0.000000e+00 0.000000e+00 0
0.000000e+00 0.000000e+00 0
0.000000e+00 0.000000e+00 0
0.000000e+00 -5.000000e+01 0
0.000000e+00 -1.036367e+02 0
-8.719885e-01 -1.082248e+02 0
-6.016145e-01 -1.116761e+02 0
2.262393e+00 -1.122304e+02 0
1.015661e+01 -2.346163e+02 0
1.015661e+01 -1.794738e+02 0
0.000000e+00 0.000000e+00 0
-4.874048e+01 0.000000e+00 0
0.000000e+00 0.000000e+00 0
0.000000e+00 3.513192e+01 0
1.656004e+01 7.828247e+01 0
0.000000e+00 -1.889441e-13 0
0.000000e+00 0.000000e+00 0
2.160563e+00 7.585996e+01 0
2.160563e+00 1.231999e+01 0
0.000000e+00 0.000000e+00 0
0.000000e+00 0.000000e+00 0
0.000000e+00 0.000000e+00 0
0.000000e+00 0.000000e+00 0
0.000000e+00 -5.000000e+01 0
0.000000e+00 -1.028863e+02 0
-3.225288e+00 -1.068806e+02 0
-6.670092e+00 -1.112900e+02 0
-1.107936e+01 -1.168471e+02 0
-1.141206e+01 -2.390254e+02 0
-2.586092e+01 -1.794738e+02 0
-4.874048e+01 -5.941842e+01 0
-1.611411e+02 -5.941842e+01 0
0.000000e+00 0.000000e+00 0
-2.594485e+01 5.100365e+00 0
1.617188e+01 6.235879e+01 0
0.000000e+00 -2.486107e-13 0
0.000000e+00 0.000000e+00 0
4.871591e+00 7.442686e+01 0
4.871591e+00 1.231999e+01 0
0.000000e+00 0.000000e+00 0
0.000000e+00 0.000000e+00 0
0.000000e+00 0.000000e+00 0
0.000000e+00 0.000000e+00 0
0.000000e+00 -5.000000e+01 0
0.000000e+00 -1.009128e+02 0
-4.869242e+00 -1.020300e+02 0
-1.216156e+01 -1.037625e+02 0
-2.888386e+01 -1.074525e+02 0
-6.775956e+01 -1.012926e+02 0
-1.578237e+02 -4.648545e+01 0
-1.909987e+02 4.723945e+00 0
-2.546589e+02 4.723995e+00 0
-1.422583e+02 3.355695e+01 0
-5.678318e+00 1.133365e+01 0
7.693580e+00 3.656353e+01 0
0.000000e+00 -2.486107e-13 0
0.000000e+00 0.000000e+00 0
1.249348e+01 7.095147e+01 0
1.249348e+01 1.231999e+01 0
0.000000e+00 0.000000e+00 0
0.000000e+00 0.000000e+00 0
0.000000e+00 0.000000e+00 0
0.000000e+00 0.000000e+00 0
0.000000e+00 -5.000000e+01 0
0.000000e+00 -9.860570e+01 0
-3.424412e+00 -9.525249e+01 0
-7.852202e+00 -8.709341e+01 0
-1.690455e+01 -6.082794e+01 0
-3.152374e+01 9.321387e+00 0
-9.882745e+01 4.311391e+01 0
-1.422583e+02 1.813520e+01 0
-1.422583e+02 3.811751e+01 0
-1.422583e+02 -3.681872e+01 0
7.867892e+01 -7.823893e+01 0
2.120992e+01 5.698359e+01 0
0.000000e+00 -2.784439e-13 0
0.000000e+00 0.000000e+00 0
3.309147e+01 6.183873e+01 0
3.309147e+01 1.231999e+01 0
0.000000e+00 0.000000e+00 0
0.000000e+00 0.000000e+00 0
0.000000e+00 0.000000e+00 0
0.000000e+00 0.000000e+00 0
0.000000e+00 -5.000000e+01 0
0.000000e+00 -9.813048e+01 0
-2.803692e-01 -9.478637e+01 0
1.461699e+00 -9.018028e+01 0
8.375043e+00 -8.360167e+01 0
3.476945e+01 -1.874909e+01 0
4.308101e+01 2.132819e+01 0
0.000000e+00 0.000000e+00 0
0.000000e+00 0.000000e+00 0
0.000000e+00 -5.797320e+01 0
5.841239e+01 -8.049100e+01 0
-1.463356e+01 5.763963e+01 0
0.000000e+00 -3.381105e-13 0
0.000000e+00 0.000000e+00 0
2.404725e+01 3.760930e+01 0
6.137378e+01 1.231999e+01 0
0.000000e+00 0.000000e+00 0
0.000000e+00 0.000000e+00 0
0.000000e+00 0.000000e+00 0
0.000000e+00 0.000000e+00 0
0.000000e+00 -5.000000e+01 0
0.000000e+00 -9.897028e+01 0
1.247417e+00 -9.737234e+01 0
4.566380e+00 -9.581439e+01 0
1.099330e+01 -9.438802e+01 0
2.084141e+01 -2.564750e+01 0
4.200924e+01 2.132819e+01 0
0.000000e+00 0.000000e+00 0
0.000000e+00 0.000000e+00 0
0.000000e+00 -5.797320e+01 0
-5.841219e+01 -4.981822e+01 0
-7.955474e+01 5.842085e+01 0
0.000000e+00 -2.088330e-13 0
0.000000e+00 0.000000e+00 0
-2.509917e+01 0.000000e+00 0
3.132494e-13 0.000000e+00 0
0.000000e+00 0.000000e+00 0
0.000000e+00 0.000000e+00 0
0.000000e+00 0.000000e+00 0
0.000000e+00 0.000000e+00 0
0.000000e+00 -5.000000e+01 0
0.000000e+00 -1.000000e+02 0
6.059885e-15 -1.000000e+02 0
1.957809e-14 -1.000000e+02 0
4.055652e-14 -1.000000e+02 0
6.588182e-14 -5.000000e+01 0
2.436384e-13 0.000000e+00 0
0.000000e+00 0.000000e+00 0
0.000000e+00 0.000000e+00 0
0.000000e+00 0.000000e+00 0
-4.872769e-13 0.000000e+00 0
-4.176659e-13 0.000000e+00 0
0.000000e+00 0.000000e+00 0
</DataArray>
<DataArray Name="Type and Neighbourhood" type="Float64" format="ascii" NumberOfComponents="3">
0.000000e+00 0.000000e+00 0
0.000000e+00 0.000000e+00 0
0.000000e+00 0.000000e+00 0
0.000000e+00 0.000000e+00 0
0.000000e+00 0.000000e+00 0
0.000000e+00 0.000000e+00 0
0.000000e+00 0.000000e+00 0
0.000000e+00 0.000000e+00 0
0.000000e+00 0.000000e+00 0