<?xml version="1.0"?>
<VTKFile type="StructuredGrid">
<StructuredGrid WholeExtent="0 19 0 33 0 0 ">
<Piece Extent="0 19 0 33 0 0 ">
<Points>
<DataArray type="Float64" format="ascii" NumberOfComponents="3">
0.000000e+00 0.000000e+00 0.000000e+00
1.052632e-01 0.000000e+00 0.000000e+00
2.105263e-01 0.000000e+00 0.000000e+00
3.157895e-01 0.000000e+00 0.000000e+00
4.210526e-01 0.000000e+00 0.000000e+00
5.263158e-01 0.000000e+00 0.000000e+00
6.315789e-01 0.000000e+00 0.000000e+00
7.368421e-01 0.000000e+00 0.000000e+00
8.421053e-01 0.000000e+00 0.000000e+00
9.473684e-01 0.000000e+00 0.000000e+00
1.052632e+00 0.000000e+00 0.000000e+00
1.157895e+00 0.000000e+00 0.000000e+00
1.263158e+00 0.000000e+00 0.000000e+00
1.368421e+00 0.000000e+00 0.000000e+00
1.473684e+00 0.000000e+00 0.000000e+00
1.578947e+00 0.000000e+00 0.000000e+00
1.684211e+00 0.000000e+00 0.000000e+00
1.789474e+00 0.000000e+00 0.000000e+00
1.894737e+00 0.000000e+00 0.000000e+00
2.000000e+00 0.000000e+00 0.000000e+00
0.000000e+00 1.060606e-01 0.000000e+00
1.052632e-01 1.060606e-01 0.000000e+00
2.105263e-01 1.060606e-01 0.000000e+00
3.157895e-01 1.060606e-01 0.000000e+00
4.210526e-01 1.060606e-01 0.000000e+00
5.263158e-01 1.060606e-01 0.000000e+00
6.315789e-01 1.060606e-01 0.000000e+00
7.368421e-01 1.060606e-01 0.000000e+00
8.421053e-01 1.060606e-01 0.000000e+00
9.473684e-01 1.060606e-01 0.000000e+00
1.052632e+00 1.060606e-01 0.000000e+00
1.157895e+00 1.060606e-01 0.000000e+00
1.263158e+00 1.060606e-01 0.000000e+00
1.368421e+00 1.060606e-01 0.000000e+00
1.473684e+00 1.060606e-01 0.000000e+00
1.578947e+00 1.060606e-01 0.000000e+00
1.684211e+00 1.060606e-01 0.000000e+00
1.789474e+00 1.060606e-01 0.000000e+00
1.894737e+00 1.060606e-01 0.000000e+00
2.000000e+00 1.060606e-01 0.000000e+00
0.000000e+00 2.121212e-01 0.000000e+00
1.052632e-01 2.121212e-01 0.000000e+00
2.105263e-01 2.121212e-01 0.000000e+00
3.157895e-01 2.121212e-01 0.000000e+00
4.210526e-01 2.121212e-01 0.000000e+00
5.263158e-01 2.121212e-01 0.000000e+00
6.315789e-01 2.121212e-01 0.000000e+00
7.368421e-01 2.121212e-01 0.000000e+00
8.421053e-01 2.121212e-01 0.000000e+00
9.473684e-01 2.121212e-01 0.000000e+00
1.052632e+00 2.121212e-01 0.000000e+00
1.157895e+00 2.121212e-01 0.000000e+00
1.263158e+00 2.121212e-01 0.000000e+00
1.368421e+00 2.121212e-01 0.000000e+00
1.473684e+00 2.121212e-01 0.000000e+00
1.578947e+00 2.121212e-01 0.000000e+00
1.684211e+00 2.121212e-01 0.000000e+00
1.789474e+00 2.121212e-01 0.000000e+00
1.894737e+00 2.121212e-01 0.000000e+00
2.000000e+00 2.121212e-01 0.000000e+00
0.000000e+00 3.181818e-01 0.000000e+00
1.052632e-01 3.181818e-01 0.000000e+00
2.105263e-01 3.181818e-01 0.000000e+00
3.157895e-01 3.181818e-01 0.000000e+00
4.210526e-01 3.181818e-01 0.000000e+00
5.263158e-01 3.181818e-01 0.000000e+00
6.315789e-01 3.181818e-01 0.000000e+00
7.368421e-01 3.181818e-01 0.000000e+00
8.421053e-01 3.181818e-01 0.000000e+00
9.473684e-01 3.181818e-01 0.000000e+00
1.052632e+00 3.181818e-01 0.000000e+00
1.157895e+00 3.181818e-01 0.000000e+00
1.263158e+00 3.181818e-01 0.000000e+00
1.368421e+00 3.181818e-01 0.000000e+00
1.473684e+00 3.181818e-01 0.000000e+00
1.578947e+00 3.181818e-01 0.000000e+00
1.684211e+00 3.181818e-01 0.000000e+00
1.789474e+00 3.181818e-01 0.000000e+00
1.894737e+00 3.181818e-01 0.000000e+00
2.000000e+00 3.181818e-01 0.000000e+00
0.000000e+00 4.242424e-01 0.000000e+00
1.052632e-01 4.242424e-01 0.000000e+00
2.105263e-01 4.242424e-01 0.000000e+00
3.157895e-01 4.242424e-01 0.000000e+00
4.210526e-01 4.242424e-01 0.000000e+00
5.263158e-01 4.242424e-01 0.000000e+00
6.315789e-01 4.242424e-01 0.000000e+00
7.368421e-01 4.242424e-01 0.000000e+00
8.421053e-01 4.242424e-01 0.000000e+00
9.473684e-01 4.242424e-01 0.000000e+00
1.052632e+00 4.242424e-01 0.000000e+00
1.157895e+00 4.242424e-01 0.000000e+00
1.263158e+00 4.242424e-01 0.000000e+00
1.368421e+00 4.242424e-01 0.000000e+00
1.473684e+00 4.242424e-01 0.000000e+00
1.578947e+00 4.242424e-01 0.000000e+00
1.684211e+00 4.242424e-01 0.000000e+00
1.789474e+00 4.242424e-01 0.000000e+00
1.894737e+00 4.242424e-01 0.000000e+00
2.000000e+00 4.242424e-01 0.000000e+00
0.000000e+00 5.303030e-01 0.000000e+00
1.052632e-01 5.303030e-01 0.000000e+00
2.105263e-01 5.303030e-01 0.000000e+00
3.157895e-01 5.303030e-01 0.000000e+00
4.210526e-01 5.303030e-01 0.000000e+00
5.263158e-01 5.303030e-01 0.000000e+00
6.315789e-01 5.303030e-01 0.000000e+00
7.368421e-01 5.303030e-01 0.000000e+00
8.421053e-01 5.303030e-01 0.000000e+00
9.473684e-01 5.303030e-01 0.000000e+00
1.052632e+00 5.303030e-01 0.000000e+00
1.157895e+00 5.303030e-01 0.000000e+00
1.263158e+00 5.303030e-01 0.000000e+00
1.368421e+00 5.303030e-01 0.000000e+00
1.473684e+00 5.303030e-01 0.000000e+00
1.578947e+00 5.303030e-01 0.000000e+00
1.684211e+00 5.303030e-01 0.000000e+00
1.789474e+00 5.303030e-01 0.000000e+00
1.894737e+00 5.303030e-01 0.000000e+00
2.000000e+00 5.303030e-01 0.000000e+00
0.000000e+00 6.363636e-01 0.000000e+00
1.052632e-01 6.363636e-01 0.000000e+00
2.105263e-01 6.363636e-01 0.000000e+00
3.157895e-01 6.363636e-01 0.000000e+00
4.210526e-01 6.363636e-01 0.000000e+00
5.263158e-01 6.363636e-01 0.000000e+00
6.315789e-01 6.363636e-01 0.000000e+00
7.368421e-01 6.363636e-01 0.000000e+00
8.421053e-01 6.363636e-01 0.000000e+00
9.473684e-01 6.363636e-01 0.000000e+00
1.052632e+00 6.363636e-01 0.000000e+00
1.157895e+00 6.363636e-01 0.000000e+00
1.263158e+00 6.363636e-01 0.000000e+00
1.368421e+00 6.363636e-01 0.000000e+00
1.473684e+00 6.363636e-01 0.000000e+00
1.578947e+00 6.363636e-01 0.000000e+00
1.684211e+00 6.363636e-01 0.000000e+00
1.789474e+00 6.363636e-01 0.000000e+00
1.894737e+00 6.363636e-01 0.000000e+00
2.000000e+00 6.363636e-01 0.000000e+00
0.000000e+00 7.424242e-01 0.000000e+00
1.052632e-01 7.424242e-01 0.000000e+00
2.105263e-01 7.424242e-01 0.000000e+00
3.157895e-01 7.424242e-01 0.000000e+00
4.210526e-01 7.424242e-01 0.000000e+00
5.263158e-01 7.424242e-01 0.000000e+00
6.315789e-01 7.424242e-01 0.000000e+00
7.368421e-01 7.424242e-01 0.000000e+00
8.421053e-01 7.424242e-01 0.000000e+00
9.473684e-01 7.424242e-01 0.000000e+00
1.052632e+00 7.424242e-01 0.000000e+00
1.157895e+00 7.424242e-01 0.000000e+00
1.263158e+00 7.424242e-01 0.000000e+00
1.368421e+00 7.424242e-01 0.000000e+00
1.473684e+00 7.424242e-01 0.000000e+00
1.578947e+00 7.424242e-01 0.000000e+00
1.684211e+00 7.424242e-01 0.000000e+00
1.789474e+00 7.424242e-01 0.000000e+00
1.894737e+00 7.424242e-01 0.000000e+00
2.000000e+00 7.424242e-01 0.000000e+00
0.000000e+00 8.484848e-01 0.000000e+00
1.052632e-01 8.484848e-01 0.000000e+00
2.105263e-01 8.484848e-01 0.000000e+00
3.157895e-01 8.484848e-01 0.000000e+00
4.210526e-01 8.484848e-01 0.000000e+00
5.263158e-01 8.484848e-01 0.000000e+00
6.315789e-01 8.484848e-01 0.000000e+00
7.368421e-01 8.484848e-01 0.000000e+00
8.421053e-01 8.484848e-01 0.000000e+00
9.473684e-01 8.484848e-01 0.000000e+00
1.052632e+00 8.484848e-01 0.000000e+00
1.157895e+00 8.484848e-01 0.000000e+00
1.263158e+00 8.484848e-01 0.000000e+00
1.368421e+00 8.484848e-01 0.000000e+00
1.473684e+00 8.484848e-01 0.000000e+00
1.578947e+00 8.484848e-01 0.000000e+00
1.684211e+00 8.484848e-01 0.000000e+00
1.789474e+00 8.484848e-01 0.000000e+00
1.894737e+00 8.484848e-01 0.000000e+00
2.000000e+00 8.484848e-01 0.000000e+00
0.000000e+00 9.545455e-01 0.000000e+00
1.052632e-01 9.545455e-01 0.000000e+00
2.105263e-01 9.545455e-01 0.000000e+00
3.157895e-01 9.545455e-01 0.000000e+00
4.210526e-01 9.545455e-01 0.000000e+00
5.263158e-01 9.545455e-01 0.000000e+00
6.315789e-01 9.545455e-01 0.000000e+00
7.368421e-01 9.545455e-01 0.000000e+00
8.421053e-01 9.545455e-01 0.000000e+00
9.473684e-01 9.545455e-01 0.000000e+00
1.052632e+00 9.545455e-01 0.000000e+00
1.157895e+00 9.545455e-01 0.000000e+00
1.263158e+00 9.545455e-01 0.000000e+00
1.368421e+00 9.545455e-01 0.000000e+00
1.473684e+00 9.545455e-01 0.000000e+00
1.578947e+00 9.545455e-01 0.000000e+00
1.684211e+00 9.545455e-01 0.000000e+00
1.789474e+00 9.545455e-01 0.000000e+00
1.894737e+00 9.545455e-01 0.000000e+00
2.000000e+00 9.545455e-01 0.000000e+00
0.000000e+00 1.060606e+00 0.000000e+00
1.052632e-01 1.060606e+00 0.000000e+00
2.105263e-01 1.060606e+00 0.000000e+00
3.157895e-01 1.060606e+00 0.000000e+00
4.210526e-01 1.060606e+00 0.000000e+00
5.263158e-01 1.060606e+00 0.000000e+00
6.315789e-01 1.060606e+00 0.000000e+00
7.368421e-01 1.060606e+00 0.000000e+00
8.421053e-01 1.060606e+00 0.000000e+00
9.473684e-01 1.060606e+00 0.000000e+00
1.052632e+00 1.060606e+00 0.000000e+00
1.157895e+00 1.060606e+00 0.000000e+00
1.263158e+00 1.060606e+00 0.000000e+00
1.368421e+00 1.060606e+00 0.000000e+00
1.473684e+00 1.060606e+00 0.000000e+00
1.578947e+00 1.060606e+00 0.000000e+00
1.684211e+00 1.060606e+00 0.000000e+00
1.789474e+00 1.060606e+00 0.000000e+00
1.894737e+00 1.060606e+00 0.000000e+00
2.000000e+00 1.060606e+00 0.000000e+00
0.000000e+00 1.166667e+00 0.000000e+00
1.052632e-01 1.166667e+00 0.000000e+00
2.105263e-01 1.166667e+00 0.000000e+00
3.157895e-01 1.166667e+00 0.000000e+00
4.210526e-01 1.166667e+00 0.000000e+00
5.263158e-01 1.166667e+00 0.000000e+00
6.315789e-01 1.166667e+00 0.000000e+00
7.368421e-01 1.166667e+00 0.000000e+00
8.421053e-01 1.166667e+00 0.000000e+00
9.473684e-01 1.166667e+00 0.000000e+00
1.052632e+00 1.166667e+00 0.000000e+00
1.157895e+00 1.166667e+00 0.000000e+00
1.263158e+00 1.166667e+00 0.000000e+00
1.368421e+00 1.166667e+00 0.000000e+00
1.473684e+00 1.166667e+00 0.000000e+00
1.578947e+00 1.166667e+00 0.000000e+00
1.684211e+00 1.166667e+00 0.000000e+00
1.789474e+00 1.166667e+00 0.000000e+00
1.894737e+00 1.166667e+00 0.000000e+00
2.000000e+00 1.166667e+00 0.000000e+00
0.000000e+00 1.272727e+00 0.000000e+00
1.052632e-01 1.272727e+00 0.000000e+00
2.105263e-01 1.272727e+00 0.000000e+00
3.157895e-01 1.272727e+00 0.000000e+00
4.210526e-01 1.272727e+00 0.000000e+00
5.263158e-01 1.272727e+00 0.000000e+00
6.315789e-01 1.272727e+00 0.000000e+00
7.368421e-01 1.272727e+00 0.000000e+00
8.421053e-01 1.272727e+00 0.000000e+00
9.473684e-01 1.272727e+00 0.000000e+00
1.052632e+00 1.272727e+00 0.000000e+00
[...]
<PointData>
<DataArray Name="Velocity" type="Float64" format="ascii" NumberOfComponents="3">
0.000000e+00 0.000000e+00 0
0.000000e+00 0.000000e+00 0
0.000000e+00 0.000000e+00 0
0.000000e+00 0.000000e+00 0
0.000000e+00 0.000000e+00 0
0.000000e+00 0.000000e+00 0
0.000000e+00 0.000000e+00 0
0.000000e+00 0.000000e+00 0
0.000000e+00 0.000000e+00 0
0.000000e+00 0.000000e+00 0
0.000000e+00 0.000000e+00 0
-2.346179e-16 0.000000e+00 0
0.000000e+00 0.000000e+00 0
0.000000e+00 0.000000e+00 0
0.000000e+00 0.000000e+00 0
2.098439e-16 0.000000e+00 0
0.000000e+00 0.000000e+00 0
0.000000e+00 0.000000e+00 0
0.000000e+00 0.000000e+00 0
0.000000e+00 0.000000e+00 0
0.000000e+00 0.000000e+00 0
-6.061863e+01 7.089283e+01 0
-9.631815e+01 3.800856e+01 0
-1.082568e+02 1.679660e+01 0
-8.703011e+01 2.596199e+00 0
-8.487516e+01 -5.550245e+01 0
-3.470040e+01 -6.478367e+01 0
-3.614078e+01 -2.281399e+01 0
-1.852520e+01 -1.703339e+01 0
-6.299246e+00 -1.225123e+01 0
6.272141e+00 -1.167036e+01 0
1.712713e+01 -1.103457e+01 0
2.939570e+01 -1.069409e+01 0
3.890401e+01 -7.316704e+00 0
4.400690e+01 -2.622158e+00 0
4.405430e+01 2.354405e+00 0
3.903349e+01 7.041903e+00 0
2.945254e+01 1.110341e+01 0
1.612238e+01 1.446875e+01 0
0.000000e+00 -3.356244e-14 0
0.000000e+00 0.000000e+00 0
-1.934039e+01 9.704783e+01 0
-2.769162e+01 4.799910e+01 0
-2.595835e+01 1.202913e+01 0
0.000000e+00 0.000000e+00 0
0.000000e+00 -5.181365e+01 0
-1.836391e+01 -5.055191e+01 0
-3.328669e+01 -1.648728e+01 0
-1.934060e+01 -3.006761e+01 0
-5.348060e+00 -2.498520e+01 0
7.052630e+00 -2.360385e+01 0
1.919863e+01 -2.329874e+01 0
3.240711e+01 -2.194186e+01 0
4.203722e+01 -1.472189e+01 0
4.726937e+01 -5.189312e+00 0
4.728684e+01 5.011090e+00 0
4.167723e+01 1.471238e+01 0
3.120076e+01 2.308467e+01 0
1.687619e+01 2.967567e+01 0
0.000000e+00 -6.961098e-14 0
0.000000e+00 0.000000e+00 0
-3.514547e+00 9.879423e+01 0
-1.950357e+00 3.439393e+01 0
0.000000e+00 3.147967e-15 0
0.000000e+00 0.000000e+00 0
0.000000e+00 -5.181365e+01 0
-2.950048e+01 -4.845793e+01 0
-3.425671e+01 -2.205751e+01 0
-1.880140e+01 -4.518368e+01 0
-4.021190e+00 -3.884440e+01 0
8.718051e+00 -3.640301e+01 0
2.158227e+01 -3.658113e+01 0
3.553112e+01 -3.370570e+01 0
4.503725e+01 -2.229156e+01 0
5.088834e+01 -7.911551e+00 0
5.159124e+01 7.988913e+00 0
4.500657e+01 2.324984e+01 0
3.329568e+01 3.609234e+01 0
1.791532e+01 4.590588e+01 0
0.000000e+00 -1.044165e-13 0
0.000000e+00 0.000000e+00 0
9.109019e-02 9.901297e+01 0
9.109019e-02 3.439393e+01 0
0.000000e+00 0.000000e+00 0
0.000000e+00 0.000000e+00 0
0.000000e+00 -5.181365e+01 0
-2.565228e+01 -4.578863e+01 0
-2.874190e+01 -2.729640e+01 0
-1.474598e+01 -6.053219e+01 0
-1.292293e+00 -5.271314e+01 0
1.082776e+01 -4.940127e+01 0
2.354726e+01 -5.031494e+01 0
3.764718e+01 -4.557453e+01 0
4.636317e+01 -3.019545e+01 0
5.423737e+01 -1.179295e+01 0
5.910378e+01 1.093741e+01 0
5.037128e+01 3.314654e+01 0
3.650061e+01 5.038116e+01 0
1.932187e+01 6.322359e+01 0
0.000000e+00 -1.441942e-13 0
0.000000e+00 0.000000e+00 0
5.893231e-01 9.870245e+01 0
5.893231e-01 3.439393e+01 0
0.000000e+00 0.000000e+00 0
0.000000e+00 0.000000e+00 0
0.000000e+00 -5.181365e+01 0
-1.153685e+01 -4.527067e+01 0
-1.256151e+01 -3.297221e+01 0
-6.966888e+00 -7.284124e+01 0
2.490852e+00 -6.461188e+01 0
1.274373e+01 -6.143074e+01 0
2.435635e+01 -6.360372e+01 0
3.762586e+01 -5.669446e+01 0
4.417151e+01 -3.900743e+01 0
5.694380e+01 -2.074869e+01 0
2.817466e+01 1.188428e+01 0
4.389411e+01 4.602425e+01 0
3.404027e+01 6.737698e+01 0
1.834995e+01 8.268301e+01 0
0.000000e+00 -1.839719e-13 0
0.000000e+00 0.000000e+00 0
5.488073e-01 9.841918e+01 0
5.488073e-01 3.439393e+01 0
0.000000e+00 0.000000e+00 0
0.000000e+00 0.000000e+00 0
0.000000e+00 0.000000e+00 0
0.000000e+00 0.000000e+00 0
-1.983012e+00 -3.899316e+01 0
-8.062884e-01 -7.573332e+01 0
5.399821e+00 -7.257308e+01 0
1.354846e+01 -7.143242e+01 0
2.336779e+01 -7.538557e+01 0
3.449674e+01 -6.553980e+01 0
3.560867e+01 -4.965974e+01 0
4.368403e+01 4.325081e+00 0
-3.919339e+00 2.416155e+01 0
1.537013e+01 2.731209e+01 0
2.667721e+01 7.611884e+01 0
1.380280e+01 9.752174e+01 0
0.000000e+00 -2.187774e-13 0
0.000000e+00 0.000000e+00 0
7.051884e-01 9.814949e+01 0
7.051884e-01 3.439393e+01 0
0.000000e+00 0.000000e+00 0
0.000000e+00 0.000000e+00 0
0.000000e+00 0.000000e+00 0
0.000000e+00 0.000000e+00 0
-2.545617e+00 -4.070966e+01 0
1.064933e+00 -8.028884e+01 0
6.332583e+00 -7.907538e+01 0
1.285856e+01 -7.953484e+01 0
2.059431e+01 -8.471071e+01 0
2.863387e+01 -6.902807e+01 0
2.057822e+01 -4.826432e+01 0
2.058051e+01 -2.390832e+01 0
-3.288410e-15 -4.069546e+00 0
-1.558914e+00 1.380636e+01 0
5.752637e+00 6.906175e+01 0
5.624273e+00 1.095623e+02 0
0.000000e+00 -2.486107e-13 0
0.000000e+00 0.000000e+00 0
1.063397e+00 9.770865e+01 0
1.063397e+00 3.439393e+01 0
0.000000e+00 0.000000e+00 0
0.000000e+00 0.000000e+00 0
0.000000e+00 0.000000e+00 0
0.000000e+00 0.000000e+00 0
-2.462751e+00 -4.261083e+01 0
1.480410e+00 -8.465853e+01 0
6.003212e+00 -8.445605e+01 0
1.109463e+01 -8.580219e+01 0
1.674048e+01 -9.128039e+01 0
2.158684e+01 -6.552359e+01 0
-2.585980e+00 -4.154537e+01 0
5.935455e+00 -2.390832e+01 0
0.000000e+00 0.000000e+00 0
0.000000e+00 2.554332e+01 0
-8.470059e+00 7.064235e+01 0
-4.468678e-01 1.035504e+02 0
0.000000e+00 -2.486107e-13 0
0.000000e+00 0.000000e+00 0
5.434990e-01 9.707803e+01 0
5.434990e-01 3.439393e+01 0
0.000000e+00 0.000000e+00 0
0.000000e+00 0.000000e+00 0
0.000000e+00 0.000000e+00 0
0.000000e+00 -5.000000e-05 0
-1.324885e+00 -4.468850e+01 0
1.598416e+00 -8.882470e+01 0
5.114449e+00 -8.876243e+01 0
8.874790e+00 -9.035345e+01 0
1.267510e+01 -9.528241e+01 0
1.477864e+01 -4.955520e+01 0
-2.725745e+00 -5.000000e-05 0
0.000000e+00 0.000000e+00 0
0.000000e+00 0.000000e+00 0
0.000000e+00 2.554332e+01 0
-5.260633e+00 6.899968e+01 0
-1.321070e+00 1.013826e+02 0
0.000000e+00 -2.386662e-13 0
0.000000e+00 0.000000e+00 0
-1.782006e+00 9.716103e+01 0
-1.647500e-01 3.439393e+01 0
0.000000e+00 0.000000e+00 0
0.000000e+00 0.000000e+00 0
0.000000e+00 0.000000e+00 0
0.000000e+00 -5.000000e-05 0
-3.569087e-01 -4.560368e+01 0
1.398753e+00 -9.119401e+01 0
3.992754e+00 -9.178755e+01 0
6.679352e+00 -9.342012e+01 0
9.106119e+00 -9.722897e+01 0
9.651928e+00 -5.000607e+01 0
9.651928e+00 -5.000000e-05 0
0.000000e+00 0.000000e+00 0
0.000000e+00 0.000000e+00 0
0.000000e+00 2.554332e+01 0
-5.761579e+00 6.696377e+01 0
-1.488649e+00 9.854078e+01 0
0.000000e+00 -2.386662e-13 0
0.000000e+00 0.000000e+00 0
-2.629920e+00 1.282004e+02 0
-8.237499e-02 6.372082e+01 0
0.000000e+00 0.000000e+00 0
0.000000e+00 0.000000e+00 0
0.000000e+00 0.000000e+00 0
0.000000e+00 -5.000000e-05 0
-1.926346e+00 -4.651170e+01 0
5.343183e-01 -9.326154e+01 0
2.787948e+00 -9.408303e+01 0
4.781293e+00 -9.550555e+01 0
6.355568e+00 -9.827750e+01 0
6.443845e+00 -5.010514e+01 0
6.443845e+00 -5.000000e-05 0
0.000000e+00 0.000000e+00 0
0.000000e+00 0.000000e+00 0
0.000000e+00 2.554332e+01 0
-4.745895e+00 6.498842e+01 0
-9.362565e-01 9.587140e+01 0
0.000000e+00 -2.486107e-13 0
0.000000e+00 0.000000e+00 0
-9.803067e-01 6.541694e+01 0
-5.001701e-02 0.000000e+00 0
0.000000e+00 0.000000e+00 0
0.000000e+00 0.000000e+00 0
0.000000e+00 0.000000e+00 0
0.000000e+00 -5.000000e-05 0
-2.277622e+00 -4.807801e+01 0
1.111282e-02 -9.593904e+01 0
1.852985e+00 -9.606670e+01 0
3.323854e+00 -9.701477e+01 0
4.379077e+00 -9.890412e+01 0
4.325503e+00 -5.009501e+01 0
4.325503e+00 -5.000000e-05 0
0.000000e+00 0.000000e+00 0
0.000000e+00 0.000000e+00 0
0.000000e+00 2.554332e+01 0
-3.389762e+00 6.335363e+01 0
-1.519052e-03 9.398729e+01 0
0.000000e+00 -2.287218e-13 0
0.000000e+00 0.000000e+00 0
-9.801426e-03 7.778138e+01 0
-9.801426e-03 1.231999e+01 0
0.000000e+00 0.000000e+00 0
0.000000e+00 0.000000e+00 0
0.000000e+00 0.000000e+00 0
0.000000e+00 -5.000000e-05 0
-8.479312e-01 -4.879853e+01 0
1.271077e-01 -9.740420e+01 0
1.295873e+00 -9.742087e+01 0
2.295284e+00 -9.805078e+01 0
2.997168e+00 -9.928674e+01 0
2.901402e+00 -5.005116e+01 0
2.901402e+00 -5.000000e-05 0
0.000000e+00 0.000000e+00 0
0.000000e+00 0.000000e+00 0
0.000000e+00 2.554332e+01 0
-2.304746e+00 6.176597e+01 0
3.754539e-01 9.264742e+01 0
0.000000e+00 -2.386662e-13 0
0.000000e+00 0.000000e+00 0
7.176388e-02 7.774086e+01 0
7.176388e-02 1.231999e+01 0
0.000000e+00 0.000000e+00 0
0.000000e+00 0.000000e+00 0
0.000000e+00 0.000000e+00 0
0.000000e+00 -5.000000e-05 0
-3.215183e-01 -4.905997e+01 0
1.842761e-01 -9.809862e+01 0
9.108111e-01 -9.825130e+01 0
1.571741e+00 -9.872895e+01 0
2.036199e+00 -9.951483e+01 0
1.933299e+00 -4.999852e+01 0
1.933299e+00 -5.000000e-05 0
0.000000e+00 0.000000e+00 0
0.000000e+00 0.000000e+00 0
0.000000e+00 2.554332e+01 0
-8.872932e-01 6.081862e+01 0
3.253739e-01 9.183058e+01 0
0.000000e+00 -2.486107e-13 0
0.000000e+00 0.000000e+00 0
5.356535e-02 7.770907e+01 0
5.356535e-02 1.231999e+01 0
0.000000e+00 0.000000e+00 0
0.000000e+00 0.000000e+00 0
0.000000e+00 0.000000e+00 0
0.000000e+00 -5.000000e-05 0
-4.027564e-01 -4.931297e+01 0
6.924755e-02 -9.865069e+01 0
5.926708e-01 -9.881885e+01 0
1.048818e+00 -9.918469e+01 0
1.361772e+00 -9.965104e+01 0
1.266556e+00 -4.994748e+01 0
1.266556e+00 -5.000000e-05 0
0.000000e+00 0.000000e+00 0
0.000000e+00 0.000000e+00 0
0.000000e+00 0.000000e+00 0
0.000000e+00 3.513192e+01 0
5.175089e-01 9.188310e+01 0
0.000000e+00 -2.486107e-13 0
0.000000e+00 0.000000e+00 0
3.883101e-02 7.768689e+01 0
3.883101e-02 1.231999e+01 0
0.000000e+00 0.000000e+00 0
0.000000e+00 0.000000e+00 0
0.000000e+00 0.000000e+00 0
0.000000e+00 -5.000000e-05 0
-5.057985e-01 -4.953367e+01 0
-6.581404e-02 -9.909971e+01 0
3.430210e-01 -9.923829e+01 0
6.715734e-01 -9.950388e+01 0
8.870307e-01 -9.973421e+01 0
8.062018e-01 -4.990259e+01 0
8.062018e-01 -5.000000e-05 0
0.000000e+00 0.000000e+00 0
0.000000e+00 0.000000e+00 0
0.000000e+00 0.000000e+00 0
0.000000e+00 3.513192e+01 0
5.495446e-01 9.221252e+01 0
0.000000e+00 -2.287218e-13 0
0.000000e+00 0.000000e+00 0
3.036389e-02 7.766995e+01 0
3.036389e-02 1.231999e+01 0
0.000000e+00 0.000000e+00 0
0.000000e+00 0.000000e+00 0
0.000000e+00 0.000000e+00 0
0.000000e+00 -5.000000e-05 0
-3.674773e-01 -4.976001e+01 0
-1.158456e-01 -9.950965e+01 0
1.748881e-01 -9.956182e+01 0
4.090620e-01 -9.973283e+01 0
5.598280e-01 -9.978669e+01 0
5.002312e-01 -4.986604e+01 0
5.002312e-01 -5.000000e-05 0
0.000000e+00 0.000000e+00 0
0.000000e+00 0.000000e+00 0
0.000000e+00 0.000000e+00 0
0.000000e+00 3.513192e+01 0
5.556592e-01 9.244494e+01 0
0.000000e+00 -2.386662e-13 0
0.000000e+00 0.000000e+00 0
2.292915e-02 7.765630e+01 0
2.292915e-02 1.231999e+01 0
0.000000e+00 0.000000e+00 0
0.000000e+00 0.000000e+00 0
0.000000e+00 0.000000e+00 0
0.000000e+00 -5.000000e-05 0
-3.356094e-01 -4.979095e+01 0
-1.464955e-01 -9.964992e+01 0
6.412647e-02 -9.976717e+01 0
2.309748e-01 -9.989174e+01 0
3.421345e-01 -9.982607e+01 0
3.197812e-01 -4.984254e+01 0
3.197812e-01 -5.000000e-05 0
0.000000e+00 0.000000e+00 0
0.000000e+00 0.000000e+00 0
0.000000e+00 0.000000e+00 0
0.000000e+00 3.513192e+01 0
8.120817e-01 9.277414e+01 0
0.000000e+00 -2.386662e-13 0
0.000000e+00 0.000000e+00 0
1.175690e-02 7.764685e+01 0
1.175690e-02 1.231999e+01 0
0.000000e+00 0.000000e+00 0
0.000000e+00 0.000000e+00 0
0.000000e+00 0.000000e+00 0
0.000000e+00 -5.000000e-05 0
-2.960253e-01 -4.994969e+01 0
-1.487266e-01 -9.991155e+01 0
-2.272556e-03 -9.994215e+01 0
1.090806e-01 -1.000129e+02 0
1.879720e-01 -9.987617e+01 0
1.982065e-01 -4.984352e+01 0
1.289880e-01 -5.000000e-05 0
0.000000e+00 0.000000e+00 0
0.000000e+00 0.000000e+00 0
0.000000e+00 0.000000e+00 0
0.000000e+00 3.513192e+01 0
1.111000e+00 9.326114e+01 0
0.000000e+00 -2.486107e-13 0
0.000000e+00 0.000000e+00 0
2.377688e-03 7.764445e+01 0
2.377688e-03 1.231999e+01 0
0.000000e+00 0.000000e+00 0
0.000000e+00 0.000000e+00 0
0.000000e+00 0.000000e+00 0
0.000000e+00 -5.000000e-05 0
-9.805044e-02 -4.993858e+01 0
-9.741157e-02 -9.994511e+01 0
-3.328625e-02 -1.000269e+02 0
1.966671e-02 -1.000834e+02 0
5.407096e-02 -9.991588e+01 0
-1.620309e-03 -4.985280e+01 0
0.000000e+00 0.000000e+00 0
0.000000e+00 0.000000e+00 0
0.000000e+00 0.000000e+00 0
0.000000e+00 0.000000e+00 0
0.000000e+00 3.513192e+01 0
6.267034e-01 9.389529e+01 0
0.000000e+00 -2.386662e-13 0
0.000000e+00 -1.571204e-05 0
0.000000e+00 7.764445e+01 0
0.000000e+00 1.231999e+01 0
0.000000e+00 0.000000e+00 0
0.000000e+00 0.000000e+00 0
0.000000e+00 0.000000e+00 0
0.000000e+00 -5.000000e-05 0
-8.767682e-02 -4.995054e+01 0
-7.015944e-02 -9.997702e+01 0
-5.345321e-02 -1.000601e+02 0
-5.166454e-02 -1.001010e+02 0
-7.448887e-02 -9.985472e+01 0
-2.323894e-01 -4.978735e+01 0
0.000000e+00 0.000000e+00 0
0.000000e+00 0.000000e+00 0
0.000000e+00 0.000000e+00 0
0.000000e+00 0.000000e+00 0
0.000000e+00 0.000000e+00 0
0.000000e+00 5.885470e+01 0
0.000000e+00 -2.486107e-13 0
0.000000e+00 0.000000e+00 0
0.000000e+00 0.000000e+00 0
0.000000e+00 0.000000e+00 0
0.000000e+00 0.000000e+00 0
0.000000e+00 0.000000e+00 0
0.000000e+00 0.000000e+00 0
0.000000e+00 -5.000000e-05 0
-3.270533e-02 -4.995584e+01 0
-3.720156e-02 -9.997921e+01 0
-5.912642e-02 -1.000456e+02 0
-9.892799e-02 -1.000622e+02 0
-1.845193e-01 -9.973378e+01 0
-4.045978e-01 -4.969370e+01 0
0.000000e+00 0.000000e+00 0
0.000000e+00 0.000000e+00 0
0.000000e+00 0.000000e+00 0
0.000000e+00 0.000000e+00 0
0.000000e+00 0.000000e+00 0
0.000000e+00 5.885470e+01 0
0.000000e+00 -2.486107e-13 0
0.000000e+00 0.000000e+00 0
0.000000e+00 0.000000e+00 0
0.000000e+00 0.000000e+00 0
0.000000e+00 0.000000e+00 0
0.000000e+00 0.000000e+00 0
0.000000e+00 0.000000e+00 0
0.000000e+00 0.000000e+00 0
0.000000e+00 -4.999080e+01 0
-1.011749e-02 -9.999504e+01 0
-4.737837e-02 -9.999773e+01 0
-9.986810e-02 -9.997462e+01 0
-2.153381e-01 -9.954673e+01 0
-3.131278e-01 -4.956561e+01 0
-7.008045e-02 0.000000e+00 0
0.000000e+00 0.000000e+00 0
0.000000e+00 0.000000e+00 0
0.000000e+00 0.000000e+00 0
0.000000e+00 0.000000e+00 0
0.000000e+00 5.885470e+01 0
0.000000e+00 -2.486107e-13 0
0.000000e+00 0.000000e+00 0
0.000000e+00 0.000000e+00 0
0.000000e+00 0.000000e+00 0
0.000000e+00 0.000000e+00 0
0.000000e+00 0.000000e+00 0
0.000000e+00 0.000000e+00 0
0.000000e+00 0.000000e+00 0
0.000000e+00 -5.000000e+01 0
0.000000e+00 -9.998591e+01 0
-2.010120e-02 -9.995517e+01 0
-3.542779e-02 -9.989299e+01 0
-4.455793e-02 -9.951812e+01 0
2.856285e-01 -4.959703e+01 0
2.856285e-01 -2.650000e-03 0
0.000000e+00 0.000000e+00 0
0.000000e+00 0.000000e+00 0
0.000000e+00 0.000000e+00 0
0.000000e+00 0.000000e+00 0
0.000000e+00 5.885470e+01 0
0.000000e+00 -2.486107e-13 0
0.000000e+00 0.000000e+00 0
0.000000e+00 0.000000e+00 0
0.000000e+00 0.000000e+00 0
0.000000e+00 0.000000e+00 0
0.000000e+00 0.000000e+00 0
0.000000e+00 0.000000e+00 0
0.000000e+00 0.000000e+00 0
0.000000e+00 -5.000000e+01 0
0.000000e+00 -9.998438e+01 0
3.437282e-03 -9.996243e+01 0
2.386737e-02 -9.994997e+01 0
9.545032e-02 -9.986943e+01 0
4.907737e-01 -4.990016e+01 0
4.907737e-01 -2.650000e-03 0
0.000000e+00 0.000000e+00 0
0.000000e+00 0.000000e+00 0
0.000000e+00 0.000000e+00 0
0.000000e+00 0.000000e+00 0
0.000000e+00 5.885470e+01 0
0.000000e+00 -2.486107e-13 0
0.000000e+00 0.000000e+00 0
0.000000e+00 0.000000e+00 0
0.000000e+00 0.000000e+00 0
0.000000e+00 0.000000e+00 0
0.000000e+00 0.000000e+00 0
0.000000e+00 0.000000e+00 0
0.000000e+00 0.000000e+00 0
0.000000e+00 -5.000000e+01 0
0.000000e+00 -9.998965e+01 0
1.087141e-02 -9.997950e+01 0
3.119741e-02 -9.998570e+01 0
6.754265e-02 -9.998856e+01 0
1.814629e-01 -4.999535e+01 0
1.350647e-01 -2.650000e-03 0
0.000000e+00 0.000000e+00 0
0.000000e+00 0.000000e+00 0
0.000000e+00 0.000000e+00 0
0.000000e+00 0.000000e+00 0
0.000000e+00 5.885470e+01 0
0.000000e+00 -2.486107e-13 0
0.000000e+00 0.000000e+00 0
0.000000e+00 0.000000e+00 0
0.000000e+00 0.000000e+00 0
0.000000e+00 0.000000e+00 0
0.000000e+00 0.000000e+00 0
0.000000e+00 0.000000e+00 0
0.000000e+00 0.000000e+00 0
0.000000e+00 -5.000000e+01 0
0.000000e+00 -9.999551e+01 0
9.532803e-03 -9.999404e+01 0
2.218726e-02 -1.000071e+02 0
3.714430e-02 -1.000208e+02 0
5.734566e-02 -5.001229e+01 0
0.000000e+00 0.000000e+00 0
0.000000e+00 0.000000e+00 0
0.000000e+00 0.000000e+00 0
0.000000e+00 0.000000e+00 0
0.000000e+00 0.000000e+00 0
0.000000e+00 5.885470e+01 0
0.000000e+00 -2.486107e-13 0
0.000000e+00 0.000000e+00 0
0.000000e+00 0.000000e+00 0
0.000000e+00 0.000000e+00 0
0.000000e+00 0.000000e+00 0
0.000000e+00 0.000000e+00 0
0.000000e+00 0.000000e+00 0
0.000000e+00 0.000000e+00 0
0.000000e+00 -5.000000e+01 0
0.000000e+00 -9.999936e+01 0
5.532117e-03 -1.000020e+02 0
1.069135e-02 -1.000135e+02 0
1.202965e-02 -1.000240e+02 0
1.432340e-02 -5.001306e+01 0
0.000000e+00 0.000000e+00 0
0.000000e+00 0.000000e+00 0
0.000000e+00 0.000000e+00 0
0.000000e+00 0.000000e+00 0
0.000000e+00 0.000000e+00 0
0.000000e+00 0.000000e+00 0
0.000000e+00 0.000000e+00 0
0.000000e+00 0.000000e+00 0
0.000000e+00 0.000000e+00 0
0.000000e+00 0.000000e+00 0
0.000000e+00 0.000000e+00 0
0.000000e+00 0.000000e+00 0
0.000000e+00 0.000000e+00 0
0.000000e+00 0.000000e+00 0
0.000000e+00 -5.000000e+01 0
0.000000e+00 -1.000011e+02 0
2.104986e-03 -1.000049e+02 0
2.767018e-03 -1.000136e+02 0
-6.420740e-04 -1.000245e+02 0
3.196959e-03 -5.001460e+01 0
0.000000e+00 0.000000e+00 0
0.000000e+00 0.000000e+00 0
0.000000e+00 0.000000e+00 0
0.000000e+00 0.000000e+00 0
0.000000e+00 0.000000e+00 0
0.000000e+00 0.000000e+00 0
0.000000e+00 0.000000e+00 0
0.000000e+00 0.000000e+00 0
0.000000e+00 0.000000e+00 0
0.000000e+00 0.000000e+00 0
0.000000e+00 0.000000e+00 0
0.000000e+00 0.000000e+00 0
0.000000e+00 0.000000e+00 0
0.000000e+00 0.000000e+00 0
0.000000e+00 -5.000000e+01 0
0.000000e+00 -1.000015e+02 0
7.634707e-06 -1.000047e+02 0
-1.628319e-03 -1.000108e+02 0
-6.870682e-03 -1.000244e+02 0
-5.615888e-03 -5.001693e+01 0
0.000000e+00 0.000000e+00 0
0.000000e+00 0.000000e+00 0
0.000000e+00 0.000000e+00 0
0.000000e+00 0.000000e+00 0
0.000000e+00 0.000000e+00 0
0.000000e+00 0.000000e+00 0
0.000000e+00 0.000000e+00 0
0.000000e+00 0.000000e+00 0
0.000000e+00 0.000000e+00 0
0.000000e+00 0.000000e+00 0
0.000000e+00 0.000000e+00 0
0.000000e+00 0.000000e+00 0
0.000000e+00 0.000000e+00 0
0.000000e+00 0.000000e+00 0
0.000000e+00 -5.000000e+01 0
0.000000e+00 -1.000011e+02 0
-9.063814e-04 -1.000032e+02 0
-3.366306e-03 -1.000067e+02 0
-9.004376e-03 -1.000205e+02 0
-2.580290e-02 -5.001587e+01 0
0.000000e+00 0.000000e+00 0
0.000000e+00 0.000000e+00 0
0.000000e+00 0.000000e+00 0
0.000000e+00 0.000000e+00 0
0.000000e+00 0.000000e+00 0
0.000000e+00 0.000000e+00 0
0.000000e+00 0.000000e+00 0
0.000000e+00 0.000000e+00 0
0.000000e+00 0.000000e+00 0
0.000000e+00 0.000000e+00 0
0.000000e+00 0.000000e+00 0
0.000000e+00 0.000000e+00 0
0.000000e+00 0.000000e+00 0
0.000000e+00 0.000000e+00 0
0.000000e+00 -5.000000e+01 0
0.000000e+00 -1.000005e+02 0
-9.156133e-04 -1.000013e+02 0
-2.979157e-03 -1.000026e+02 0
-7.556044e-03 -1.000018e+02 0
-2.330434e-02 -5.000000e+01 0
0.000000e+00 0.000000e+00 0
0.000000e+00 0.000000e+00 0
0.000000e+00 0.000000e+00 0
0.000000e+00 0.000000e+00 0
0.000000e+00 0.000000e+00 0
0.000000e+00 0.000000e+00 0
0.000000e+00 0.000000e+00 0
0.000000e+00 0.000000e+00 0
0.000000e+00 0.000000e+00 0
0.000000e+00 0.000000e+00 0
0.000000e+00 0.000000e+00 0
0.000000e+00 0.000000e+00 0
0.000000e+00 0.000000e+00 0
0.000000e+00 0.000000e+00 0
0.000000e+00 -5.000000e+01 0
0.000000e+00 -1.000000e+02 0
-3.034798e-18 -1.000000e+02 0
-9.559614e-18 -1.000000e+02 0
-2.475669e-17 -1.000000e+02 0
-2.488534e-17 -5.000000e+01 0
0.000000e+00 0.000000e+00 0
0.000000e+00 0.000000e+00 0
0.000000e+00 0.000000e+00 0
0.000000e+00 0.000000e+00 0
0.000000e+00 0.000000e+00 0
0.000000e+00 0.000000e+00 0
0.000000e+00 0.000000e+00 0
</DataArray>
<DataArray Name="Type and Neighbourhood" type="Float64" format="ascii" NumberOfComponents="3">
0.000000e+00 0.000000e+00 0
0.000000e+00 0.000000e+00 0
0.000000e+00 0.000000e+00 0
1.100000e+01 1.000000e+00 0
1.100000e+01 1.000000e+00 0
0.000000e+00 0.000000e+00 0
0.000000e+00 0.000000e+00 0
0.000000e+00 0.000000e+00 0
0.000000e+00 0.000000e+00 0
0.000000e+00 0.000000e+00 0
0.000000e+00 0.000000e+00 0
0.000000e+00 0.000000e+00 0