<?xml version="1.0"?>
<VTKFile type="StructuredGrid">
<StructuredGrid WholeExtent="0 19 0 33 0 0 ">
<Piece Extent="0 19 0 33 0 0 ">
<Points>
<DataArray type="Float64" format="ascii" NumberOfComponents="3">
0.000000e+00 0.000000e+00 0.000000e+00
1.052632e-01 0.000000e+00 0.000000e+00
2.105263e-01 0.000000e+00 0.000000e+00
3.157895e-01 0.000000e+00 0.000000e+00
4.210526e-01 0.000000e+00 0.000000e+00
5.263158e-01 0.000000e+00 0.000000e+00
6.315789e-01 0.000000e+00 0.000000e+00
7.368421e-01 0.000000e+00 0.000000e+00
8.421053e-01 0.000000e+00 0.000000e+00
9.473684e-01 0.000000e+00 0.000000e+00
1.052632e+00 0.000000e+00 0.000000e+00
1.157895e+00 0.000000e+00 0.000000e+00
1.263158e+00 0.000000e+00 0.000000e+00
1.368421e+00 0.000000e+00 0.000000e+00
1.473684e+00 0.000000e+00 0.000000e+00
1.578947e+00 0.000000e+00 0.000000e+00
1.684211e+00 0.000000e+00 0.000000e+00
1.789474e+00 0.000000e+00 0.000000e+00
1.894737e+00 0.000000e+00 0.000000e+00
2.000000e+00 0.000000e+00 0.000000e+00
0.000000e+00 1.060606e-01 0.000000e+00
1.052632e-01 1.060606e-01 0.000000e+00
2.105263e-01 1.060606e-01 0.000000e+00
3.157895e-01 1.060606e-01 0.000000e+00
4.210526e-01 1.060606e-01 0.000000e+00
5.263158e-01 1.060606e-01 0.000000e+00
6.315789e-01 1.060606e-01 0.000000e+00
7.368421e-01 1.060606e-01 0.000000e+00
8.421053e-01 1.060606e-01 0.000000e+00
9.473684e-01 1.060606e-01 0.000000e+00
1.052632e+00 1.060606e-01 0.000000e+00
1.157895e+00 1.060606e-01 0.000000e+00
1.263158e+00 1.060606e-01 0.000000e+00
1.368421e+00 1.060606e-01 0.000000e+00
1.473684e+00 1.060606e-01 0.000000e+00
1.578947e+00 1.060606e-01 0.000000e+00
1.684211e+00 1.060606e-01 0.000000e+00
1.789474e+00 1.060606e-01 0.000000e+00
1.894737e+00 1.060606e-01 0.000000e+00
2.000000e+00 1.060606e-01 0.000000e+00
0.000000e+00 2.121212e-01 0.000000e+00
1.052632e-01 2.121212e-01 0.000000e+00
2.105263e-01 2.121212e-01 0.000000e+00
3.157895e-01 2.121212e-01 0.000000e+00
4.210526e-01 2.121212e-01 0.000000e+00
5.263158e-01 2.121212e-01 0.000000e+00
6.315789e-01 2.121212e-01 0.000000e+00
7.368421e-01 2.121212e-01 0.000000e+00
8.421053e-01 2.121212e-01 0.000000e+00
9.473684e-01 2.121212e-01 0.000000e+00
1.052632e+00 2.121212e-01 0.000000e+00
1.157895e+00 2.121212e-01 0.000000e+00
1.263158e+00 2.121212e-01 0.000000e+00
1.368421e+00 2.121212e-01 0.000000e+00
1.473684e+00 2.121212e-01 0.000000e+00
1.578947e+00 2.121212e-01 0.000000e+00
1.684211e+00 2.121212e-01 0.000000e+00
1.789474e+00 2.121212e-01 0.000000e+00
1.894737e+00 2.121212e-01 0.000000e+00
2.000000e+00 2.121212e-01 0.000000e+00
0.000000e+00 3.181818e-01 0.000000e+00
1.052632e-01 3.181818e-01 0.000000e+00
2.105263e-01 3.181818e-01 0.000000e+00
3.157895e-01 3.181818e-01 0.000000e+00
4.210526e-01 3.181818e-01 0.000000e+00
5.263158e-01 3.181818e-01 0.000000e+00
6.315789e-01 3.181818e-01 0.000000e+00
7.368421e-01 3.181818e-01 0.000000e+00
8.421053e-01 3.181818e-01 0.000000e+00
9.473684e-01 3.181818e-01 0.000000e+00
1.052632e+00 3.181818e-01 0.000000e+00
1.157895e+00 3.181818e-01 0.000000e+00
1.263158e+00 3.181818e-01 0.000000e+00
1.368421e+00 3.181818e-01 0.000000e+00
1.473684e+00 3.181818e-01 0.000000e+00
1.578947e+00 3.181818e-01 0.000000e+00
1.684211e+00 3.181818e-01 0.000000e+00
1.789474e+00 3.181818e-01 0.000000e+00
1.894737e+00 3.181818e-01 0.000000e+00
2.000000e+00 3.181818e-01 0.000000e+00
0.000000e+00 4.242424e-01 0.000000e+00
1.052632e-01 4.242424e-01 0.000000e+00
2.105263e-01 4.242424e-01 0.000000e+00
3.157895e-01 4.242424e-01 0.000000e+00
4.210526e-01 4.242424e-01 0.000000e+00
5.263158e-01 4.242424e-01 0.000000e+00
6.315789e-01 4.242424e-01 0.000000e+00
7.368421e-01 4.242424e-01 0.000000e+00
8.421053e-01 4.242424e-01 0.000000e+00
9.473684e-01 4.242424e-01 0.000000e+00
1.052632e+00 4.242424e-01 0.000000e+00
1.157895e+00 4.242424e-01 0.000000e+00
1.263158e+00 4.242424e-01 0.000000e+00
1.368421e+00 4.242424e-01 0.000000e+00
1.473684e+00 4.242424e-01 0.000000e+00
1.578947e+00 4.242424e-01 0.000000e+00
1.684211e+00 4.242424e-01 0.000000e+00
1.789474e+00 4.242424e-01 0.000000e+00
1.894737e+00 4.242424e-01 0.000000e+00
2.000000e+00 4.242424e-01 0.000000e+00
0.000000e+00 5.303030e-01 0.000000e+00
1.052632e-01 5.303030e-01 0.000000e+00
2.105263e-01 5.303030e-01 0.000000e+00
3.157895e-01 5.303030e-01 0.000000e+00
4.210526e-01 5.303030e-01 0.000000e+00
5.263158e-01 5.303030e-01 0.000000e+00
6.315789e-01 5.303030e-01 0.000000e+00
7.368421e-01 5.303030e-01 0.000000e+00
8.421053e-01 5.303030e-01 0.000000e+00
9.473684e-01 5.303030e-01 0.000000e+00
1.052632e+00 5.303030e-01 0.000000e+00
1.157895e+00 5.303030e-01 0.000000e+00
1.263158e+00 5.303030e-01 0.000000e+00
1.368421e+00 5.303030e-01 0.000000e+00
1.473684e+00 5.303030e-01 0.000000e+00
1.578947e+00 5.303030e-01 0.000000e+00
1.684211e+00 5.303030e-01 0.000000e+00
1.789474e+00 5.303030e-01 0.000000e+00
1.894737e+00 5.303030e-01 0.000000e+00
2.000000e+00 5.303030e-01 0.000000e+00
0.000000e+00 6.363636e-01 0.000000e+00
1.052632e-01 6.363636e-01 0.000000e+00
2.105263e-01 6.363636e-01 0.000000e+00
3.157895e-01 6.363636e-01 0.000000e+00
4.210526e-01 6.363636e-01 0.000000e+00
5.263158e-01 6.363636e-01 0.000000e+00
6.315789e-01 6.363636e-01 0.000000e+00
7.368421e-01 6.363636e-01 0.000000e+00
8.421053e-01 6.363636e-01 0.000000e+00
9.473684e-01 6.363636e-01 0.000000e+00
1.052632e+00 6.363636e-01 0.000000e+00
1.157895e+00 6.363636e-01 0.000000e+00
1.263158e+00 6.363636e-01 0.000000e+00
1.368421e+00 6.363636e-01 0.000000e+00
1.473684e+00 6.363636e-01 0.000000e+00
1.578947e+00 6.363636e-01 0.000000e+00
1.684211e+00 6.363636e-01 0.000000e+00
1.789474e+00 6.363636e-01 0.000000e+00
1.894737e+00 6.363636e-01 0.000000e+00
2.000000e+00 6.363636e-01 0.000000e+00
0.000000e+00 7.424242e-01 0.000000e+00
1.052632e-01 7.424242e-01 0.000000e+00
2.105263e-01 7.424242e-01 0.000000e+00
3.157895e-01 7.424242e-01 0.000000e+00
4.210526e-01 7.424242e-01 0.000000e+00
5.263158e-01 7.424242e-01 0.000000e+00
6.315789e-01 7.424242e-01 0.000000e+00
7.368421e-01 7.424242e-01 0.000000e+00
8.421053e-01 7.424242e-01 0.000000e+00
9.473684e-01 7.424242e-01 0.000000e+00
1.052632e+00 7.424242e-01 0.000000e+00
1.157895e+00 7.424242e-01 0.000000e+00
1.263158e+00 7.424242e-01 0.000000e+00
1.368421e+00 7.424242e-01 0.000000e+00
1.473684e+00 7.424242e-01 0.000000e+00
1.578947e+00 7.424242e-01 0.000000e+00
1.684211e+00 7.424242e-01 0.000000e+00
1.789474e+00 7.424242e-01 0.000000e+00
1.894737e+00 7.424242e-01 0.000000e+00
2.000000e+00 7.424242e-01 0.000000e+00
0.000000e+00 8.484848e-01 0.000000e+00
1.052632e-01 8.484848e-01 0.000000e+00
2.105263e-01 8.484848e-01 0.000000e+00
3.157895e-01 8.484848e-01 0.000000e+00
4.210526e-01 8.484848e-01 0.000000e+00
5.263158e-01 8.484848e-01 0.000000e+00
6.315789e-01 8.484848e-01 0.000000e+00
7.368421e-01 8.484848e-01 0.000000e+00
8.421053e-01 8.484848e-01 0.000000e+00
9.473684e-01 8.484848e-01 0.000000e+00
1.052632e+00 8.484848e-01 0.000000e+00
1.157895e+00 8.484848e-01 0.000000e+00
1.263158e+00 8.484848e-01 0.000000e+00
1.368421e+00 8.484848e-01 0.000000e+00
1.473684e+00 8.484848e-01 0.000000e+00
1.578947e+00 8.484848e-01 0.000000e+00
1.684211e+00 8.484848e-01 0.000000e+00
1.789474e+00 8.484848e-01 0.000000e+00
1.894737e+00 8.484848e-01 0.000000e+00
2.000000e+00 8.484848e-01 0.000000e+00
0.000000e+00 9.545455e-01 0.000000e+00
1.052632e-01 9.545455e-01 0.000000e+00
2.105263e-01 9.545455e-01 0.000000e+00
3.157895e-01 9.545455e-01 0.000000e+00
4.210526e-01 9.545455e-01 0.000000e+00
5.263158e-01 9.545455e-01 0.000000e+00
6.315789e-01 9.545455e-01 0.000000e+00
7.368421e-01 9.545455e-01 0.000000e+00
8.421053e-01 9.545455e-01 0.000000e+00
9.473684e-01 9.545455e-01 0.000000e+00
1.052632e+00 9.545455e-01 0.000000e+00
1.157895e+00 9.545455e-01 0.000000e+00
1.263158e+00 9.545455e-01 0.000000e+00
1.368421e+00 9.545455e-01 0.000000e+00
1.473684e+00 9.545455e-01 0.000000e+00
1.578947e+00 9.545455e-01 0.000000e+00
1.684211e+00 9.545455e-01 0.000000e+00
1.789474e+00 9.545455e-01 0.000000e+00
1.894737e+00 9.545455e-01 0.000000e+00
2.000000e+00 9.545455e-01 0.000000e+00
0.000000e+00 1.060606e+00 0.000000e+00
1.052632e-01 1.060606e+00 0.000000e+00
2.105263e-01 1.060606e+00 0.000000e+00
3.157895e-01 1.060606e+00 0.000000e+00
4.210526e-01 1.060606e+00 0.000000e+00
5.263158e-01 1.060606e+00 0.000000e+00
6.315789e-01 1.060606e+00 0.000000e+00
7.368421e-01 1.060606e+00 0.000000e+00
8.421053e-01 1.060606e+00 0.000000e+00
9.473684e-01 1.060606e+00 0.000000e+00
1.052632e+00 1.060606e+00 0.000000e+00
1.157895e+00 1.060606e+00 0.000000e+00
1.263158e+00 1.060606e+00 0.000000e+00
1.368421e+00 1.060606e+00 0.000000e+00
1.473684e+00 1.060606e+00 0.000000e+00
1.578947e+00 1.060606e+00 0.000000e+00
1.684211e+00 1.060606e+00 0.000000e+00
1.789474e+00 1.060606e+00 0.000000e+00
1.894737e+00 1.060606e+00 0.000000e+00
2.000000e+00 1.060606e+00 0.000000e+00
0.000000e+00 1.166667e+00 0.000000e+00
1.052632e-01 1.166667e+00 0.000000e+00
2.105263e-01 1.166667e+00 0.000000e+00
3.157895e-01 1.166667e+00 0.000000e+00
4.210526e-01 1.166667e+00 0.000000e+00
5.263158e-01 1.166667e+00 0.000000e+00
6.315789e-01 1.166667e+00 0.000000e+00
7.368421e-01 1.166667e+00 0.000000e+00
8.421053e-01 1.166667e+00 0.000000e+00
9.473684e-01 1.166667e+00 0.000000e+00
1.052632e+00 1.166667e+00 0.000000e+00
1.157895e+00 1.166667e+00 0.000000e+00
1.263158e+00 1.166667e+00 0.000000e+00
1.368421e+00 1.166667e+00 0.000000e+00
1.473684e+00 1.166667e+00 0.000000e+00
1.578947e+00 1.166667e+00 0.000000e+00
1.684211e+00 1.166667e+00 0.000000e+00
1.789474e+00 1.166667e+00 0.000000e+00
1.894737e+00 1.166667e+00 0.000000e+00
2.000000e+00 1.166667e+00 0.000000e+00
0.000000e+00 1.272727e+00 0.000000e+00
1.052632e-01 1.272727e+00 0.000000e+00
2.105263e-01 1.272727e+00 0.000000e+00
3.157895e-01 1.272727e+00 0.000000e+00
4.210526e-01 1.272727e+00 0.000000e+00
5.263158e-01 1.272727e+00 0.000000e+00
6.315789e-01 1.272727e+00 0.000000e+00
7.368421e-01 1.272727e+00 0.000000e+00
8.421053e-01 1.272727e+00 0.000000e+00
9.473684e-01 1.272727e+00 0.000000e+00
1.052632e+00 1.272727e+00 0.000000e+00
[...]
<PointData>
<DataArray Name="Velocity" type="Float64" format="ascii" NumberOfComponents="3">
0.000000e+00 0.000000e+00 0
0.000000e+00 0.000000e+00 0
0.000000e+00 0.000000e+00 0
0.000000e+00 0.000000e+00 0
0.000000e+00 0.000000e+00 0
0.000000e+00 0.000000e+00 0
0.000000e+00 0.000000e+00 0
0.000000e+00 0.000000e+00 0
0.000000e+00 0.000000e+00 0
0.000000e+00 0.000000e+00 0
0.000000e+00 0.000000e+00 0
6.686801e-17 0.000000e+00 0
0.000000e+00 0.000000e+00 0
0.000000e+00 0.000000e+00 0
0.000000e+00 0.000000e+00 0
-3.181080e-16 0.000000e+00 0
0.000000e+00 0.000000e+00 0
0.000000e+00 0.000000e+00 0
0.000000e+00 0.000000e+00 0
0.000000e+00 0.000000e+00 0
0.000000e+00 0.000000e+00 0
-3.927141e+01 4.254541e+01 0
-5.154008e+01 9.343628e+00 0
-4.841076e+01 -1.388952e+01 0
-5.206502e+01 -1.525576e+01 0
-5.030884e+01 -7.087616e+00 0
-4.336693e+01 -6.576786e+00 0
-3.553318e+01 -1.223063e+01 0
-2.017127e+01 -1.230123e+01 0
-9.525970e+00 -1.045461e+01 0
1.946757e+00 -1.007208e+01 0
1.135365e+01 -9.602467e+00 0
2.292241e+01 -1.006448e+01 0
3.175803e+01 -6.673338e+00 0
3.600085e+01 -2.157121e+00 0
3.560415e+01 2.107223e+00 0
3.114242e+01 5.611473e+00 0
2.339857e+01 9.186174e+00 0
1.312766e+01 1.171923e+01 0
0.000000e+00 -2.610412e-14 0
0.000000e+00 0.000000e+00 0
-2.061779e+01 5.193054e+01 0
-3.630167e+01 9.208589e+00 0
-4.822540e+01 5.289083e-01 0
-6.034013e+01 1.912451e+00 0
-5.929304e+01 -8.763982e+00 0
-4.326337e+01 -1.488759e+01 0
-3.702882e+01 -2.337138e+01 0
-2.217753e+01 -2.620423e+01 0
-9.010037e+00 -2.228559e+01 0
2.341631e+00 -2.103780e+01 0
1.394808e+01 -2.113456e+01 0
2.639999e+01 -2.055896e+01 0
3.527242e+01 -1.317752e+01 0
3.919112e+01 -3.875256e+00 0
3.819660e+01 4.895238e+00 0
3.290761e+01 1.229805e+01 0
2.406307e+01 1.815123e+01 0
1.341599e+01 2.357583e+01 0
0.000000e+00 -5.469434e-14 0
0.000000e+00 0.000000e+00 0
-1.516957e+01 7.912209e+01 0
-3.228520e+01 3.716038e+01 0
-7.367086e+01 1.033104e+01 0
-7.176898e+01 -4.104268e+00 0
-6.769938e+01 -2.429374e+01 0
-4.028396e+01 -2.900968e+01 0
-3.613729e+01 -3.347621e+01 0
-2.186028e+01 -4.053227e+01 0
-8.154909e+00 -3.515952e+01 0
3.945556e+00 -3.320411e+01 0
1.656423e+01 -3.384309e+01 0
2.978149e+01 -3.155037e+01 0
3.859998e+01 -1.956137e+01 0
4.218254e+01 -5.103460e+00 0
4.056631e+01 8.438337e+00 0
3.453377e+01 1.985208e+01 0
2.498969e+01 2.882546e+01 0
1.289581e+01 3.596460e+01 0
0.000000e+00 -7.955541e-14 0
0.000000e+00 0.000000e+00 0
-1.098972e+01 8.446032e+01 0
-5.298089e+00 6.815307e+01 0
-3.505344e+01 4.031181e+01 0
-3.505344e+01 -4.104268e+00 0
-3.505344e+01 -4.043931e+01 0
-3.051827e+01 -4.664058e+01 0
-3.254422e+01 -4.193464e+01 0
-1.962065e+01 -5.439860e+01 0
-6.380305e+00 -4.828692e+01 0
5.814887e+00 -4.594420e+01 0
1.865541e+01 -4.716622e+01 0
3.219014e+01 -4.276165e+01 0
4.048227e+01 -2.567251e+01 0
4.367507e+01 -5.856489e+00 0
4.154675e+01 1.260195e+01 0
3.513555e+01 2.799267e+01 0
2.534883e+01 3.995311e+01 0
1.317660e+01 4.875484e+01 0
0.000000e+00 -1.093887e-13 0
0.000000e+00 0.000000e+00 0
-8.252805e+00 6.160008e+01 0
0.000000e+00 3.567069e-14 0
0.000000e+00 2.109883e-14 0
0.000000e+00 -2.148136e-15 0
0.000000e+00 -5.181365e+01 0
-1.966785e+01 -6.035196e+01 0
-2.752082e+01 -4.445014e+01 0
-1.600144e+01 -6.689440e+01 0
-3.921920e+00 -6.078776e+01 0
7.513519e+00 -5.842950e+01 0
1.978321e+01 -6.041815e+01 0
3.278869e+01 -5.354258e+01 0
3.959218e+01 -3.113331e+01 0
4.207429e+01 -6.176004e+00 0
3.976504e+01 1.704255e+01 0
3.407220e+01 3.617271e+01 0
2.482665e+01 5.095076e+01 0
1.308692e+01 6.150547e+01 0
0.000000e+00 -1.392220e-13 0
0.000000e+00 0.000000e+00 0
-2.329703e+00 6.316874e+01 0
-7.728355e-01 0.000000e+00 0
0.000000e+00 0.000000e+00 0
0.000000e+00 0.000000e+00 0
0.000000e+00 -5.181365e+01 0
-8.130998e+00 -5.594226e+01 0
-1.985246e+01 -4.559870e+01 0
-1.100620e+01 -7.817628e+01 0
-1.099132e+00 -7.198003e+01 0
8.780004e+00 -6.982892e+01 0
1.963609e+01 -7.263287e+01 0
3.094745e+01 -6.272069e+01 0
3.438796e+01 -3.502845e+01 0
3.490047e+01 -6.030660e+00 0
3.384423e+01 2.066467e+01 0
3.058452e+01 4.304424e+01 0
2.302249e+01 6.109736e+01 0
1.235382e+01 7.376957e+01 0
0.000000e+00 -1.591108e-13 0
0.000000e+00 0.000000e+00 0
-1.638179e+00 9.830669e+01 0
-1.638179e+00 3.439393e+01 0
0.000000e+00 0.000000e+00 0
0.000000e+00 0.000000e+00 0
0.000000e+00 0.000000e+00 0
0.000000e+00 3.352756e-01 0
-8.506467e+00 -4.451649e+01 0
-5.104142e+00 -8.581646e+01 0
1.589499e+00 -8.072385e+01 0
9.348564e+00 -7.932181e+01 0
1.826417e+01 -8.275354e+01 0
2.720336e+01 -6.840620e+01 0
2.376853e+01 -3.511628e+01 0
2.341888e+01 -5.628154e+00 0
1.485247e+01 2.137198e+01 0
2.519267e+01 4.705721e+01 0
1.981216e+01 6.931958e+01 0
1.085006e+01 8.470237e+01 0
0.000000e+00 -1.988885e-13 0
0.000000e+00 0.000000e+00 0
-1.812658e+00 9.917858e+01 0
-1.812658e+00 3.439393e+01 0
0.000000e+00 0.000000e+00 0
0.000000e+00 0.000000e+00 0
0.000000e+00 0.000000e+00 0
0.000000e+00 0.000000e+00 0
-2.462751e+00 -4.491369e+01 0
-1.150137e+00 -8.836422e+01 0
3.151676e+00 -8.654222e+01 0
8.895863e+00 -8.662991e+01 0
1.601475e+01 -9.062293e+01 0
2.375740e+01 -6.826675e+01 0
1.099889e+01 -3.121530e+01 0
1.113019e+01 -1.003327e+01 0
2.460717e-14 9.746322e+00 0
1.166535e+01 4.191450e+01 0
1.796085e+01 7.556105e+01 0
8.963323e+00 9.373182e+01 0
0.000000e+00 -2.088330e-13 0
0.000000e+00 0.000000e+00 0
-1.824575e+00 1.001331e+02 0
-1.824575e+00 3.439393e+01 0
0.000000e+00 0.000000e+00 0
0.000000e+00 0.000000e+00 0
0.000000e+00 0.000000e+00 0
0.000000e+00 -5.000000e-05 0
-1.324885e+00 -4.615616e+01 0
2.773019e-01 -9.145520e+01 0
3.245281e+00 -9.084596e+01 0
7.140245e+00 -9.228233e+01 0
1.207183e+01 -9.772766e+01 0
1.744558e+01 -6.335235e+01 0
1.467805e+01 -2.239341e+01 0
2.482313e+00 -1.003327e+01 0
1.102406e-15 9.746322e+00 0
5.226098e-01 3.345456e+01 0
6.011295e+00 7.213546e+01 0
4.352692e+00 1.027993e+02 0
0.000000e+00 -2.287218e-13 0
0.000000e+00 0.000000e+00 0
-1.605359e+00 1.010170e+02 0
-1.605359e+00 3.439393e+01 0
0.000000e+00 0.000000e+00 0
0.000000e+00 0.000000e+00 0
0.000000e+00 0.000000e+00 0
0.000000e+00 -5.000000e-05 0
-3.569087e-01 -4.656679e+01 0
5.149072e-01 -9.300773e+01 0
2.408599e+00 -9.345716e+01 0
4.399327e+00 -9.552332e+01 0
5.464834e+00 -1.010063e+02 0
6.548229e-01 -7.089272e+01 0
-1.161234e+01 -1.839354e+01 0
0.000000e+00 -1.050264e-14 0
-5.554475e-15 1.020227e-14 0
-2.633172e+00 2.554332e+01 0
-4.799592e+00 7.081574e+01 0
-8.459620e-02 9.999703e+01 0
0.000000e+00 -2.287218e-13 0
0.000000e+00 0.000000e+00 0
-1.299919e+00 1.017506e+02 0
-1.299919e+00 3.439393e+01 0
0.000000e+00 0.000000e+00 0
0.000000e+00 0.000000e+00 0
0.000000e+00 0.000000e+00 0
0.000000e+00 -5.000000e-05 0
-1.926346e+00 -4.708910e+01 0
-1.222171e-01 -9.429617e+01 0
1.478372e+00 -9.475981e+01 0
2.635444e+00 -9.536171e+01 0
2.528857e+00 -9.395478e+01 0
-1.020251e+00 -4.614580e+01 0
-1.927545e+01 -5.000000e-05 0
0.000000e+00 0.000000e+00 0
-1.053822e-14 -3.500000e-04 0
-4.995781e+00 2.483196e+01 0
-3.466179e+00 6.871719e+01 0
-1.037995e+00 9.817171e+01 0
0.000000e+00 -2.287218e-13 0
0.000000e+00 0.000000e+00 0
-1.012175e+00 1.023267e+02 0
-1.012175e+00 3.439393e+01 0
0.000000e+00 0.000000e+00 0
0.000000e+00 0.000000e+00 0
0.000000e+00 0.000000e+00 0
0.000000e+00 -5.000000e-05 0
-2.277622e+00 -4.838454e+01 0
-4.335518e-01 -9.643820e+01 0
1.001326e+00 -9.623571e+01 0
2.162301e+00 -9.658177e+01 0
3.298884e+00 -9.732294e+01 0
6.537743e+00 -4.892323e+01 0
6.537743e+00 -5.000000e-05 0
0.000000e+00 0.000000e+00 0
-1.056212e-14 -3.500000e-04 0
-5.007111e+00 2.427677e+01 0
-3.290046e+00 6.710296e+01 0
-1.197494e+00 9.650460e+01 0
0.000000e+00 -2.287218e-13 0
0.000000e+00 0.000000e+00 0
-6.392933e-01 1.027704e+02 0
-6.392933e-01 3.439393e+01 0
0.000000e+00 0.000000e+00 0
0.000000e+00 0.000000e+00 0
0.000000e+00 0.000000e+00 0
0.000000e+00 -5.000000e-05 0
-8.479312e-01 -4.893451e+01 0
-1.481887e-01 -9.758734e+01 0
8.024023e-01 -9.737533e+01 0
1.714222e+00 -9.767668e+01 0
2.594141e+00 -9.836337e+01 0
3.064270e+00 -4.940920e+01 0
3.064270e+00 -5.000000e-05 0
0.000000e+00 0.000000e+00 0
-6.970878e-15 -3.500000e-04 0
-3.304636e+00 2.339485e+01 0
-2.799653e+00 6.517168e+01 0
-1.016875e+00 9.485674e+01 0
0.000000e+00 -2.187774e-13 0
0.000000e+00 0.000000e+00 0
-5.298728e-01 1.029709e+02 0
2.137811e+01 3.439393e+01 0
0.000000e+00 0.000000e+00 0
0.000000e+00 0.000000e+00 0
0.000000e+00 0.000000e+00 0
0.000000e+00 -5.000000e-05 0
-3.215183e-01 -4.909575e+01 0
2.358193e-02 -9.810720e+01 0
6.431813e-01 -9.811223e+01 0
1.299120e+00 -9.838708e+01 0
1.939842e+00 -9.868322e+01 0
2.333147e+00 -4.939692e+01 0
2.335727e+00 -5.000000e-05 0
0.000000e+00 0.000000e+00 0
-1.738688e-15 -3.500000e-04 0
-8.242478e-01 2.400445e+01 0
-2.006545e+00 6.503436e+01 0
-6.834932e-01 9.368373e+01 0
0.000000e+00 -2.187774e-13 0
0.000000e+00 0.000000e+00 0
-4.199597e-01 8.123038e+01 0
2.148802e+01 1.231999e+01 0
0.000000e+00 0.000000e+00 0
0.000000e+00 0.000000e+00 0
0.000000e+00 0.000000e+00 0
0.000000e+00 -5.000000e-05 0
-4.027564e-01 -4.929287e+01 0
-2.180268e-02 -9.856999e+01 0
4.473653e-01 -9.866053e+01 0
8.994532e-01 -9.898316e+01 0
1.275289e+00 -9.940523e+01 0
1.706146e+00 -4.980808e+01 0
1.708726e+00 -2.650000e-03 0
0.000000e+00 0.000000e+00 0
-3.461834e-16 -3.500000e-04 0
-1.641128e-01 2.479136e+01 0
-1.751217e+00 6.523511e+01 0
-4.752167e-01 9.283499e+01 0
0.000000e+00 -2.187774e-13 0
0.000000e+00 0.000000e+00 0
5.507012e-02 8.132008e+01 0
5.507012e-02 1.231999e+01 0
0.000000e+00 0.000000e+00 0
0.000000e+00 0.000000e+00 0
0.000000e+00 0.000000e+00 0
0.000000e+00 -5.000000e-05 0
-5.057985e-01 -4.948247e+01 0
-1.121176e-01 -9.896664e+01 0
2.689421e-01 -9.904047e+01 0
5.772631e-01 -9.922128e+01 0
7.275225e-01 -9.949602e+01 0
8.303152e-01 -4.983364e+01 0
8.303152e-01 -2.650000e-03 0
0.000000e+00 0.000000e+00 0
-3.922283e-15 0.000000e+00 0
-1.859410e+00 2.554332e+01 0
-2.630149e+00 6.540561e+01 0
-5.503344e-01 9.203765e+01 0
0.000000e+00 -2.187774e-13 0
0.000000e+00 0.000000e+00 0
5.115769e-01 8.117489e+01 0
5.115769e-01 1.231999e+01 0
0.000000e+00 0.000000e+00 0
0.000000e+00 0.000000e+00 0
0.000000e+00 0.000000e+00 0
0.000000e+00 -5.000000e-05 0
-3.674773e-01 -4.969698e+01 0
-1.258938e-01 -9.935805e+01 0
1.643428e-01 -9.935513e+01 0
4.156873e-01 -9.944522e+01 0
6.131148e-01 -9.966020e+01 0
8.333219e-01 -4.991165e+01 0
8.333219e-01 -2.650000e-03 0
0.000000e+00 0.000000e+00 0
-3.922283e-15 2.617438e+01 0
-1.859410e+00 5.171136e+01 0
-2.944555e+00 6.400320e+01 0
-5.227019e-01 9.030332e+01 0
0.000000e+00 -2.187774e-13 0
0.000000e+00 0.000000e+00 0
9.291082e-01 8.080463e+01 0
9.291082e-01 1.231999e+01 0
0.000000e+00 0.000000e+00 0
0.000000e+00 0.000000e+00 0
0.000000e+00 0.000000e+00 0
0.000000e+00 -5.000000e-05 0
-3.356094e-01 -4.973248e+01 0
-1.295773e-01 -9.950909e+01 0
9.920488e-02 -9.958615e+01 0
3.089928e-01 -9.967345e+01 0
5.141020e-01 -9.991682e+01 0
7.348522e-01 -5.005552e+01 0
7.348522e-01 -2.650000e-03 0
0.000000e+00 0.000000e+00 0
0.000000e+00 0.000000e+00 0
0.000000e+00 2.554332e+01 0
-1.894238e+00 6.305952e+01 0
-3.207511e-01 8.916490e+01 0
0.000000e+00 -2.187774e-13 0
0.000000e+00 0.000000e+00 0
1.255615e+00 8.023874e+01 0
1.255615e+00 1.231999e+01 0
0.000000e+00 0.000000e+00 0
0.000000e+00 0.000000e+00 0
0.000000e+00 0.000000e+00 0
0.000000e+00 -5.000000e-05 0
-2.960253e-01 -4.990584e+01 0
-1.213077e-01 -9.979742e+01 0
5.346867e-02 -9.979702e+01 0
2.071009e-01 -9.986326e+01 0
3.418799e-01 -1.000893e+02 0
3.844024e-01 -5.013407e+01 0
3.844024e-01 -2.650000e-03 0
0.000000e+00 0.000000e+00 0
0.000000e+00 0.000000e+00 0
0.000000e+00 2.554332e+01 0
-1.483047e+00 6.262511e+01 0
-7.172519e-01 8.859570e+01 0
0.000000e+00 -2.187774e-13 0
0.000000e+00 0.000000e+00 0
1.434893e+00 7.953950e+01 0
1.434893e+00 1.231999e+01 0
0.000000e+00 0.000000e+00 0
0.000000e+00 0.000000e+00 0
0.000000e+00 0.000000e+00 0
0.000000e+00 -5.000000e-05 0
-9.805044e-02 -4.990926e+01 0
-7.549123e-02 -9.986197e+01 0
2.949381e-02 -9.991705e+01 0
1.244414e-01 -9.996404e+01 0
1.932671e-01 -1.000955e+02 0
1.921493e-01 -5.009836e+01 0
8.471480e-02 -2.650000e-03 0
0.000000e+00 0.000000e+00 0
0.000000e+00 0.000000e+00 0
0.000000e+00 2.554332e+01 0
-2.200227e+00 6.250604e+01 0
-2.499428e+00 8.788873e+01 0
0.000000e+00 -2.088330e-13 0
0.000000e+00 0.000000e+00 0
1.442795e+00 7.879298e+01 0
1.442795e+00 1.231999e+01 0
0.000000e+00 0.000000e+00 0
0.000000e+00 0.000000e+00 0
0.000000e+00 0.000000e+00 0
0.000000e+00 -5.000000e-05 0
-8.862432e-02 -4.992984e+01 0
-4.263769e-02 -9.992721e+01 0
1.596413e-02 -9.999847e+01 0
6.846881e-02 -1.000283e+02 0
1.016090e-01 -1.001575e+02 0
8.525760e-02 -5.013030e+01 0
0.000000e+00 0.000000e+00 0
0.000000e+00 0.000000e+00 0
0.000000e+00 0.000000e+00 0
0.000000e+00 2.554332e+01 0
-3.012534e+00 6.315712e+01 0
-7.778025e+00 8.660935e+01 0
0.000000e+00 -2.088330e-13 0
0.000000e+00 0.000000e+00 0
1.300517e+00 7.808577e+01 0
1.300517e+00 1.231999e+01 0
0.000000e+00 0.000000e+00 0
0.000000e+00 0.000000e+00 0
0.000000e+00 0.000000e+00 0
0.000000e+00 -5.000000e-05 0
-8.152234e-02 -4.995354e+01 0
-1.567110e-02 -9.996529e+01 0
8.876807e-03 -1.000290e+02 0
3.238297e-02 -1.000503e+02 0
4.047539e-02 -1.001124e+02 0
-2.172108e-03 -5.007923e+01 0
0.000000e+00 0.000000e+00 0
0.000000e+00 0.000000e+00 0
0.000000e+00 0.000000e+00 0
0.000000e+00 2.554332e+01 0
-1.005911e+01 6.754187e+01 0
-9.855495e+00 8.508761e+01 0
0.000000e+00 -1.789997e-13 0
0.000000e+00 0.000000e+00 0
1.062240e+00 7.748261e+01 0
1.062240e+00 1.231999e+01 0
0.000000e+00 0.000000e+00 0
0.000000e+00 0.000000e+00 0
0.000000e+00 0.000000e+00 0
0.000000e+00 -5.000000e-05 0
-4.786952e-02 -4.999372e+01 0
-7.639956e-03 -1.000158e+02 0
3.241059e-03 -1.000469e+02 0
1.220588e-02 -1.000601e+02 0
1.322693e-02 -1.001227e+02 0
1.054278e-02 -5.008733e+01 0
0.000000e+00 0.000000e+00 0
0.000000e+00 0.000000e+00 0
0.000000e+00 0.000000e+00 0
0.000000e+00 2.554332e+01 0
-8.434732e+00 6.332598e+01 0
-2.693585e+00 7.684805e+01 0
0.000000e+00 -1.591108e-13 0
0.000000e+00 0.000000e+00 0
7.913848e-01 7.701549e+01 0
7.913848e-01 1.231999e+01 0
0.000000e+00 0.000000e+00 0
0.000000e+00 0.000000e+00 0
0.000000e+00 0.000000e+00 0
0.000000e+00 0.000000e+00 0
0.000000e+00 -5.000045e+01 0
3.494798e-04 -1.000234e+02 0
4.459589e-05 -1.000492e+02 0
3.308149e-04 -1.000604e+02 0
-3.677857e-03 -1.001107e+02 0
-3.185345e-02 -5.007653e+01 0
0.000000e+00 0.000000e+00 0
0.000000e+00 0.000000e+00 0
0.000000e+00 0.000000e+00 0
0.000000e+00 0.000000e+00 0
0.000000e+00 3.513192e+01 0
2.888396e+00 7.546910e+01 0
0.000000e+00 -1.690552e-13 0
0.000000e+00 0.000000e+00 0
5.385732e-01 7.668523e+01 0
5.385732e-01 1.231999e+01 0
0.000000e+00 0.000000e+00 0
0.000000e+00 0.000000e+00 0
0.000000e+00 0.000000e+00 0
0.000000e+00 0.000000e+00 0
0.000000e+00 -5.000000e+01 0
0.000000e+00 -1.000222e+02 0
-3.202696e-03 -1.000472e+02 0
-7.017656e-03 -1.000564e+02 0
-1.359406e-02 -1.000903e+02 0
-5.775848e-02 -5.005894e+01 0
0.000000e+00 0.000000e+00 0
0.000000e+00 0.000000e+00 0
0.000000e+00 0.000000e+00 0
0.000000e+00 0.000000e+00 0
0.000000e+00 3.513192e+01 0
3.141237e+00 7.704285e+01 0
0.000000e+00 -1.789997e-13 0
0.000000e+00 0.000000e+00 0
3.209762e-01 7.647283e+01 0
3.209762e-01 1.231999e+01 0
0.000000e+00 0.000000e+00 0
0.000000e+00 0.000000e+00 0
0.000000e+00 0.000000e+00 0
0.000000e+00 0.000000e+00 0
0.000000e+00 -5.000000e+01 0
0.000000e+00 -1.000200e+02 0
-5.411378e-03 -1.000423e+02 0
-1.149021e-02 -1.000499e+02 0
-1.947132e-02 -1.000596e+02 0
-6.576685e-02 -5.003203e+01 0
0.000000e+00 0.000000e+00 0
0.000000e+00 0.000000e+00 0
0.000000e+00 0.000000e+00 0
0.000000e+00 0.000000e+00 0
0.000000e+00 3.513192e+01 0
3.457759e+00 7.858803e+01 0
0.000000e+00 -1.839719e-13 0
0.000000e+00 0.000000e+00 0
1.192072e-01 7.636182e+01 0
1.192072e-01 1.231999e+01 0
0.000000e+00 0.000000e+00 0
0.000000e+00 0.000000e+00 0
0.000000e+00 0.000000e+00 0
0.000000e+00 0.000000e+00 0
0.000000e+00 -5.000000e+01 0
0.000000e+00 -1.000169e+02 0
-6.715878e-03 -1.000358e+02 0
-1.403395e-02 -1.000422e+02 0
-2.274331e-02 -1.000356e+02 0
-4.157417e-02 -5.001229e+01 0
0.000000e+00 0.000000e+00 0
0.000000e+00 0.000000e+00 0
0.000000e+00 0.000000e+00 0
0.000000e+00 0.000000e+00 0
0.000000e+00 3.513192e+01 0
1.905079e+00 8.048171e+01 0
0.000000e+00 -1.889441e-13 0
0.000000e+00 0.000000e+00 0
-6.535258e-02 7.635272e+01 0
-6.535258e-02 1.231999e+01 0
0.000000e+00 0.000000e+00 0
0.000000e+00 0.000000e+00 0
0.000000e+00 0.000000e+00 0
0.000000e+00 0.000000e+00 0
0.000000e+00 -5.000000e+01 0
0.000000e+00 -1.000133e+02 0
-7.303672e-03 -1.000283e+02 0
-1.518833e-02 -1.000338e+02 0
-2.422395e-02 -1.000318e+02 0
-2.193020e-02 -5.001306e+01 0
0.000000e+00 0.000000e+00 0
0.000000e+00 0.000000e+00 0
-1.028143e-13 0.000000e+00 0
-4.874048e+01 0.000000e+00 0
-2.594485e+01 0.000000e+00 0
1.245516e+00 5.830266e+01 0
0.000000e+00 -2.386662e-13 0
0.000000e+00 0.000000e+00 0
-1.365446e-01 7.642767e+01 0
-1.365446e-01 1.231999e+01 0
0.000000e+00 0.000000e+00 0
0.000000e+00 0.000000e+00 0
0.000000e+00 0.000000e+00 0
0.000000e+00 0.000000e+00 0
0.000000e+00 -5.000000e+01 0
0.000000e+00 -1.000095e+02 0
-7.255317e-03 -1.000205e+02 0
-1.515288e-02 -1.000251e+02 0
-2.418728e-02 -1.000288e+02 0
-2.034825e-02 -5.001460e+01 0
0.000000e+00 0.000000e+00 0
0.000000e+00 0.000000e+00 0
-1.028143e-13 3.339682e+01 0
-4.874048e+01 6.695377e+01 0
-7.736114e+01 1.126097e+01 0
4.647869e+00 4.071868e+01 0
0.000000e+00 -2.585551e-13 0
0.000000e+00 -4.259710e-18 0
-6.216041e-02 7.649030e+01 0
-6.216041e-02 1.231999e+01 0
0.000000e+00 0.000000e+00 0
0.000000e+00 0.000000e+00 0
0.000000e+00 0.000000e+00 0
0.000000e+00 0.000000e+00 0
0.000000e+00 -5.000000e+01 0
0.000000e+00 -1.000059e+02 0
-6.530177e-03 -1.000130e+02 0
-1.384508e-02 -1.000167e+02 0
-2.249369e-02 -1.000266e+02 0
-2.123890e-02 -5.001693e+01 0
0.000000e+00 0.000000e+00 0
0.000000e+00 0.000000e+00 0
0.000000e+00 0.000000e+00 0
0.000000e+00 -5.797320e+01 0
6.996094e+00 -7.230182e+01 0
1.236663e+01 5.211417e+01 0
0.000000e+00 -2.784439e-13 0
0.000000e+00 -1.017335e-03 0
0.000000e+00 7.649030e+01 0
0.000000e+00 1.231999e+01 0
0.000000e+00 0.000000e+00 0
0.000000e+00 0.000000e+00 0
0.000000e+00 0.000000e+00 0
0.000000e+00 0.000000e+00 0
0.000000e+00 -5.000000e+01 0
0.000000e+00 -1.000029e+02 0
-5.014624e-03 -1.000065e+02 0
-1.097404e-02 -1.000091e+02 0
-1.862937e-02 -1.000213e+02 0
-3.542789e-02 -5.001587e+01 0
0.000000e+00 0.000000e+00 0
0.000000e+00 0.000000e+00 0
0.000000e+00 0.000000e+00 0
0.000000e+00 -5.797320e+01 0
5.841239e+01 -7.905479e+01 0
-1.954609e+01 5.439338e+01 0
0.000000e+00 -3.182216e-13 0
0.000000e+00 0.000000e+00 0
0.000000e+00 0.000000e+00 0
0.000000e+00 0.000000e+00 0
0.000000e+00 0.000000e+00 0
0.000000e+00 0.000000e+00 0
0.000000e+00 0.000000e+00 0
0.000000e+00 0.000000e+00 0
0.000000e+00 -5.000000e+01 0
0.000000e+00 -1.000008e+02 0
-2.682519e-03 -1.000018e+02 0
-6.247298e-03 -1.000030e+02 0
-1.167298e-02 -1.000020e+02 0
-2.742127e-02 -5.000000e+01 0
0.000000e+00 0.000000e+00 0
0.000000e+00 0.000000e+00 0
0.000000e+00 0.000000e+00 0
0.000000e+00 -5.797320e+01 0
-5.841219e+01 -4.795313e+01 0
-7.490750e+01 5.676869e+01 0
0.000000e+00 -1.988885e-13 0
0.000000e+00 0.000000e+00 0
0.000000e+00 0.000000e+00 0
0.000000e+00 0.000000e+00 0
0.000000e+00 0.000000e+00 0
0.000000e+00 0.000000e+00 0
0.000000e+00 0.000000e+00 0
0.000000e+00 0.000000e+00 0
0.000000e+00 -5.000000e+01 0
0.000000e+00 -1.000000e+02 0
-5.538506e-18 -1.000000e+02 0
-1.426355e-17 -1.000000e+02 0
-3.056050e-17 -1.000000e+02 0
-3.034798e-17 -5.000000e+01 0
0.000000e+00 0.000000e+00 0
0.000000e+00 0.000000e+00 0
0.000000e+00 0.000000e+00 0
0.000000e+00 0.000000e+00 0
-4.872769e-13 0.000000e+00 0
-3.977770e-13 0.000000e+00 0
0.000000e+00 0.000000e+00 0
</DataArray>
<DataArray Name="Type and Neighbourhood" type="Float64" format="ascii" NumberOfComponents="3">
0.000000e+00 0.000000e+00 0
0.000000e+00 0.000000e+00 0
0.000000e+00 0.000000e+00 0
0.000000e+00 0.000000e+00 0
0.000000e+00 0.000000e+00 0
0.000000e+00 0.000000e+00 0
0.000000e+00 0.000000e+00 0
0.000000e+00 0.000000e+00 0
0.000000e+00 0.000000e+00 0