<?xml version="1.0"?>
<VTKFile type="StructuredGrid">
<StructuredGrid WholeExtent="0 19 0 33 0 0 ">
<Piece Extent="0 19 0 33 0 0 ">
<Points>
<DataArray type="Float64" format="ascii" NumberOfComponents="3">
0.000000e+00 0.000000e+00 0.000000e+00
1.052632e-01 0.000000e+00 0.000000e+00
2.105263e-01 0.000000e+00 0.000000e+00
3.157895e-01 0.000000e+00 0.000000e+00
4.210526e-01 0.000000e+00 0.000000e+00
5.263158e-01 0.000000e+00 0.000000e+00
6.315789e-01 0.000000e+00 0.000000e+00
7.368421e-01 0.000000e+00 0.000000e+00
8.421053e-01 0.000000e+00 0.000000e+00
9.473684e-01 0.000000e+00 0.000000e+00
1.052632e+00 0.000000e+00 0.000000e+00
1.157895e+00 0.000000e+00 0.000000e+00
1.263158e+00 0.000000e+00 0.000000e+00
1.368421e+00 0.000000e+00 0.000000e+00
1.473684e+00 0.000000e+00 0.000000e+00
1.578947e+00 0.000000e+00 0.000000e+00
1.684211e+00 0.000000e+00 0.000000e+00
1.789474e+00 0.000000e+00 0.000000e+00
1.894737e+00 0.000000e+00 0.000000e+00
2.000000e+00 0.000000e+00 0.000000e+00
0.000000e+00 1.060606e-01 0.000000e+00
1.052632e-01 1.060606e-01 0.000000e+00
2.105263e-01 1.060606e-01 0.000000e+00
3.157895e-01 1.060606e-01 0.000000e+00
4.210526e-01 1.060606e-01 0.000000e+00
5.263158e-01 1.060606e-01 0.000000e+00
6.315789e-01 1.060606e-01 0.000000e+00
7.368421e-01 1.060606e-01 0.000000e+00
8.421053e-01 1.060606e-01 0.000000e+00
9.473684e-01 1.060606e-01 0.000000e+00
1.052632e+00 1.060606e-01 0.000000e+00
1.157895e+00 1.060606e-01 0.000000e+00
1.263158e+00 1.060606e-01 0.000000e+00
1.368421e+00 1.060606e-01 0.000000e+00
1.473684e+00 1.060606e-01 0.000000e+00
1.578947e+00 1.060606e-01 0.000000e+00
1.684211e+00 1.060606e-01 0.000000e+00
1.789474e+00 1.060606e-01 0.000000e+00
1.894737e+00 1.060606e-01 0.000000e+00
2.000000e+00 1.060606e-01 0.000000e+00
0.000000e+00 2.121212e-01 0.000000e+00
1.052632e-01 2.121212e-01 0.000000e+00
2.105263e-01 2.121212e-01 0.000000e+00
3.157895e-01 2.121212e-01 0.000000e+00
4.210526e-01 2.121212e-01 0.000000e+00
5.263158e-01 2.121212e-01 0.000000e+00
6.315789e-01 2.121212e-01 0.000000e+00
7.368421e-01 2.121212e-01 0.000000e+00
8.421053e-01 2.121212e-01 0.000000e+00
9.473684e-01 2.121212e-01 0.000000e+00
1.052632e+00 2.121212e-01 0.000000e+00
1.157895e+00 2.121212e-01 0.000000e+00
1.263158e+00 2.121212e-01 0.000000e+00
1.368421e+00 2.121212e-01 0.000000e+00
1.473684e+00 2.121212e-01 0.000000e+00
1.578947e+00 2.121212e-01 0.000000e+00
1.684211e+00 2.121212e-01 0.000000e+00
1.789474e+00 2.121212e-01 0.000000e+00
1.894737e+00 2.121212e-01 0.000000e+00
2.000000e+00 2.121212e-01 0.000000e+00
0.000000e+00 3.181818e-01 0.000000e+00
1.052632e-01 3.181818e-01 0.000000e+00
2.105263e-01 3.181818e-01 0.000000e+00
3.157895e-01 3.181818e-01 0.000000e+00
4.210526e-01 3.181818e-01 0.000000e+00
5.263158e-01 3.181818e-01 0.000000e+00
6.315789e-01 3.181818e-01 0.000000e+00
7.368421e-01 3.181818e-01 0.000000e+00
8.421053e-01 3.181818e-01 0.000000e+00
9.473684e-01 3.181818e-01 0.000000e+00
1.052632e+00 3.181818e-01 0.000000e+00
1.157895e+00 3.181818e-01 0.000000e+00
1.263158e+00 3.181818e-01 0.000000e+00
1.368421e+00 3.181818e-01 0.000000e+00
1.473684e+00 3.181818e-01 0.000000e+00
1.578947e+00 3.181818e-01 0.000000e+00
1.684211e+00 3.181818e-01 0.000000e+00
1.789474e+00 3.181818e-01 0.000000e+00
1.894737e+00 3.181818e-01 0.000000e+00
2.000000e+00 3.181818e-01 0.000000e+00
0.000000e+00 4.242424e-01 0.000000e+00
1.052632e-01 4.242424e-01 0.000000e+00
2.105263e-01 4.242424e-01 0.000000e+00
3.157895e-01 4.242424e-01 0.000000e+00
4.210526e-01 4.242424e-01 0.000000e+00
5.263158e-01 4.242424e-01 0.000000e+00
6.315789e-01 4.242424e-01 0.000000e+00
7.368421e-01 4.242424e-01 0.000000e+00
8.421053e-01 4.242424e-01 0.000000e+00
9.473684e-01 4.242424e-01 0.000000e+00
1.052632e+00 4.242424e-01 0.000000e+00
1.157895e+00 4.242424e-01 0.000000e+00
1.263158e+00 4.242424e-01 0.000000e+00
1.368421e+00 4.242424e-01 0.000000e+00
1.473684e+00 4.242424e-01 0.000000e+00
1.578947e+00 4.242424e-01 0.000000e+00
1.684211e+00 4.242424e-01 0.000000e+00
1.789474e+00 4.242424e-01 0.000000e+00
1.894737e+00 4.242424e-01 0.000000e+00
2.000000e+00 4.242424e-01 0.000000e+00
0.000000e+00 5.303030e-01 0.000000e+00
1.052632e-01 5.303030e-01 0.000000e+00
2.105263e-01 5.303030e-01 0.000000e+00
3.157895e-01 5.303030e-01 0.000000e+00
4.210526e-01 5.303030e-01 0.000000e+00
5.263158e-01 5.303030e-01 0.000000e+00
6.315789e-01 5.303030e-01 0.000000e+00
7.368421e-01 5.303030e-01 0.000000e+00
8.421053e-01 5.303030e-01 0.000000e+00
9.473684e-01 5.303030e-01 0.000000e+00
1.052632e+00 5.303030e-01 0.000000e+00
1.157895e+00 5.303030e-01 0.000000e+00
1.263158e+00 5.303030e-01 0.000000e+00
1.368421e+00 5.303030e-01 0.000000e+00
1.473684e+00 5.303030e-01 0.000000e+00
1.578947e+00 5.303030e-01 0.000000e+00
1.684211e+00 5.303030e-01 0.000000e+00
1.789474e+00 5.303030e-01 0.000000e+00
1.894737e+00 5.303030e-01 0.000000e+00
2.000000e+00 5.303030e-01 0.000000e+00
0.000000e+00 6.363636e-01 0.000000e+00
1.052632e-01 6.363636e-01 0.000000e+00
2.105263e-01 6.363636e-01 0.000000e+00
3.157895e-01 6.363636e-01 0.000000e+00
4.210526e-01 6.363636e-01 0.000000e+00
5.263158e-01 6.363636e-01 0.000000e+00
6.315789e-01 6.363636e-01 0.000000e+00
7.368421e-01 6.363636e-01 0.000000e+00
8.421053e-01 6.363636e-01 0.000000e+00
9.473684e-01 6.363636e-01 0.000000e+00
1.052632e+00 6.363636e-01 0.000000e+00
1.157895e+00 6.363636e-01 0.000000e+00
1.263158e+00 6.363636e-01 0.000000e+00
1.368421e+00 6.363636e-01 0.000000e+00
1.473684e+00 6.363636e-01 0.000000e+00
1.578947e+00 6.363636e-01 0.000000e+00
1.684211e+00 6.363636e-01 0.000000e+00
1.789474e+00 6.363636e-01 0.000000e+00
1.894737e+00 6.363636e-01 0.000000e+00
2.000000e+00 6.363636e-01 0.000000e+00
0.000000e+00 7.424242e-01 0.000000e+00
1.052632e-01 7.424242e-01 0.000000e+00
2.105263e-01 7.424242e-01 0.000000e+00
3.157895e-01 7.424242e-01 0.000000e+00
4.210526e-01 7.424242e-01 0.000000e+00
5.263158e-01 7.424242e-01 0.000000e+00
6.315789e-01 7.424242e-01 0.000000e+00
7.368421e-01 7.424242e-01 0.000000e+00
8.421053e-01 7.424242e-01 0.000000e+00
9.473684e-01 7.424242e-01 0.000000e+00
1.052632e+00 7.424242e-01 0.000000e+00
1.157895e+00 7.424242e-01 0.000000e+00
1.263158e+00 7.424242e-01 0.000000e+00
1.368421e+00 7.424242e-01 0.000000e+00
1.473684e+00 7.424242e-01 0.000000e+00
1.578947e+00 7.424242e-01 0.000000e+00
1.684211e+00 7.424242e-01 0.000000e+00
1.789474e+00 7.424242e-01 0.000000e+00
1.894737e+00 7.424242e-01 0.000000e+00
2.000000e+00 7.424242e-01 0.000000e+00
0.000000e+00 8.484848e-01 0.000000e+00
1.052632e-01 8.484848e-01 0.000000e+00
2.105263e-01 8.484848e-01 0.000000e+00
3.157895e-01 8.484848e-01 0.000000e+00
4.210526e-01 8.484848e-01 0.000000e+00
5.263158e-01 8.484848e-01 0.000000e+00
6.315789e-01 8.484848e-01 0.000000e+00
7.368421e-01 8.484848e-01 0.000000e+00
8.421053e-01 8.484848e-01 0.000000e+00
9.473684e-01 8.484848e-01 0.000000e+00
1.052632e+00 8.484848e-01 0.000000e+00
1.157895e+00 8.484848e-01 0.000000e+00
1.263158e+00 8.484848e-01 0.000000e+00
1.368421e+00 8.484848e-01 0.000000e+00
1.473684e+00 8.484848e-01 0.000000e+00
1.578947e+00 8.484848e-01 0.000000e+00
1.684211e+00 8.484848e-01 0.000000e+00
1.789474e+00 8.484848e-01 0.000000e+00
1.894737e+00 8.484848e-01 0.000000e+00
2.000000e+00 8.484848e-01 0.000000e+00
0.000000e+00 9.545455e-01 0.000000e+00
1.052632e-01 9.545455e-01 0.000000e+00
2.105263e-01 9.545455e-01 0.000000e+00
3.157895e-01 9.545455e-01 0.000000e+00
4.210526e-01 9.545455e-01 0.000000e+00
5.263158e-01 9.545455e-01 0.000000e+00
6.315789e-01 9.545455e-01 0.000000e+00
7.368421e-01 9.545455e-01 0.000000e+00
8.421053e-01 9.545455e-01 0.000000e+00
9.473684e-01 9.545455e-01 0.000000e+00
1.052632e+00 9.545455e-01 0.000000e+00
1.157895e+00 9.545455e-01 0.000000e+00
1.263158e+00 9.545455e-01 0.000000e+00
1.368421e+00 9.545455e-01 0.000000e+00
1.473684e+00 9.545455e-01 0.000000e+00
1.578947e+00 9.545455e-01 0.000000e+00
1.684211e+00 9.545455e-01 0.000000e+00
1.789474e+00 9.545455e-01 0.000000e+00
1.894737e+00 9.545455e-01 0.000000e+00
2.000000e+00 9.545455e-01 0.000000e+00
0.000000e+00 1.060606e+00 0.000000e+00
1.052632e-01 1.060606e+00 0.000000e+00
2.105263e-01 1.060606e+00 0.000000e+00
3.157895e-01 1.060606e+00 0.000000e+00
4.210526e-01 1.060606e+00 0.000000e+00
5.263158e-01 1.060606e+00 0.000000e+00
6.315789e-01 1.060606e+00 0.000000e+00
7.368421e-01 1.060606e+00 0.000000e+00
8.421053e-01 1.060606e+00 0.000000e+00
9.473684e-01 1.060606e+00 0.000000e+00
1.052632e+00 1.060606e+00 0.000000e+00
1.157895e+00 1.060606e+00 0.000000e+00
1.263158e+00 1.060606e+00 0.000000e+00
1.368421e+00 1.060606e+00 0.000000e+00
1.473684e+00 1.060606e+00 0.000000e+00
1.578947e+00 1.060606e+00 0.000000e+00
1.684211e+00 1.060606e+00 0.000000e+00
1.789474e+00 1.060606e+00 0.000000e+00
1.894737e+00 1.060606e+00 0.000000e+00
2.000000e+00 1.060606e+00 0.000000e+00
0.000000e+00 1.166667e+00 0.000000e+00
1.052632e-01 1.166667e+00 0.000000e+00
2.105263e-01 1.166667e+00 0.000000e+00
3.157895e-01 1.166667e+00 0.000000e+00
4.210526e-01 1.166667e+00 0.000000e+00
5.263158e-01 1.166667e+00 0.000000e+00
6.315789e-01 1.166667e+00 0.000000e+00
7.368421e-01 1.166667e+00 0.000000e+00
8.421053e-01 1.166667e+00 0.000000e+00
9.473684e-01 1.166667e+00 0.000000e+00
1.052632e+00 1.166667e+00 0.000000e+00
1.157895e+00 1.166667e+00 0.000000e+00
1.263158e+00 1.166667e+00 0.000000e+00
1.368421e+00 1.166667e+00 0.000000e+00
1.473684e+00 1.166667e+00 0.000000e+00
1.578947e+00 1.166667e+00 0.000000e+00
1.684211e+00 1.166667e+00 0.000000e+00
1.789474e+00 1.166667e+00 0.000000e+00
1.894737e+00 1.166667e+00 0.000000e+00
2.000000e+00 1.166667e+00 0.000000e+00
0.000000e+00 1.272727e+00 0.000000e+00
1.052632e-01 1.272727e+00 0.000000e+00
2.105263e-01 1.272727e+00 0.000000e+00
3.157895e-01 1.272727e+00 0.000000e+00
4.210526e-01 1.272727e+00 0.000000e+00
5.263158e-01 1.272727e+00 0.000000e+00
6.315789e-01 1.272727e+00 0.000000e+00
7.368421e-01 1.272727e+00 0.000000e+00
8.421053e-01 1.272727e+00 0.000000e+00
9.473684e-01 1.272727e+00 0.000000e+00
1.052632e+00 1.272727e+00 0.000000e+00
[...]
<PointData>
<DataArray Name="Velocity" type="Float64" format="ascii" NumberOfComponents="3">
0.000000e+00 0.000000e+00 0
0.000000e+00 0.000000e+00 0
0.000000e+00 0.000000e+00 0
0.000000e+00 0.000000e+00 0
0.000000e+00 0.000000e+00 0
0.000000e+00 0.000000e+00 0
0.000000e+00 0.000000e+00 0
0.000000e+00 0.000000e+00 0
0.000000e+00 0.000000e+00 0
0.000000e+00 0.000000e+00 0
0.000000e+00 0.000000e+00 0
6.694399e-17 0.000000e+00 0
0.000000e+00 0.000000e+00 0
0.000000e+00 0.000000e+00 0
0.000000e+00 0.000000e+00 0
-2.830969e-16 0.000000e+00 0
0.000000e+00 0.000000e+00 0
0.000000e+00 0.000000e+00 0
0.000000e+00 0.000000e+00 0
0.000000e+00 0.000000e+00 0
0.000000e+00 0.000000e+00 0
-4.159798e+01 4.712770e+01 0
-5.648021e+01 1.386527e+01 0
-5.014685e+01 -1.609000e+01 0
-5.176793e+01 -2.229386e+01 0
-4.868926e+01 -1.010478e+01 0
-4.221470e+01 -6.375189e+00 0
-3.494377e+01 -1.188717e+01 0
-1.965762e+01 -1.216605e+01 0
-9.182938e+00 -1.025886e+01 0
2.140157e+00 -9.959600e+00 0
1.144230e+01 -9.506373e+00 0
2.288468e+01 -9.954442e+00 0
3.165009e+01 -6.630574e+00 0
3.589113e+01 -2.175279e+00 0
3.553742e+01 2.047772e+00 0
3.113443e+01 5.520676e+00 0
2.344858e+01 9.226295e+00 0
1.328180e+01 1.178865e+01 0
0.000000e+00 -2.486107e-14 0
0.000000e+00 0.000000e+00 0
-1.998658e+01 5.690809e+01 0
-3.375263e+01 8.613640e+00 0
-4.353778e+01 -4.747982e+00 0
-5.808573e+01 -1.468637e+00 0
-5.819696e+01 -9.625607e+00 0
-4.248227e+01 -1.384962e+01 0
-3.651252e+01 -2.272797e+01 0
-2.176150e+01 -2.595599e+01 0
-8.707139e+00 -2.196291e+01 0
2.509074e+00 -2.078149e+01 0
1.394422e+01 -2.090168e+01 0
2.628113e+01 -2.036088e+01 0
3.509424e+01 -1.310498e+01 0
3.902854e+01 -3.916776e+00 0
3.809204e+01 4.792736e+00 0
3.284918e+01 1.218042e+01 0
2.400332e+01 1.798788e+01 0
1.343532e+01 2.362622e+01 0
0.000000e+00 -5.718045e-14 0
0.000000e+00 0.000000e+00 0
-1.459652e+01 8.113604e+01 0
-2.934387e+01 3.759490e+01 0
-7.371649e+01 8.427443e+00 0
-7.217558e+01 -7.523617e+00 0
-6.770704e+01 -2.582644e+01 0
-3.965011e+01 -2.822391e+01 0
-3.560808e+01 -3.276492e+01 0
-2.145698e+01 -4.018208e+01 0
-7.875184e+00 -3.471331e+01 0
4.060903e+00 -3.278256e+01 0
1.648050e+01 -3.345852e+01 0
2.956431e+01 -3.126469e+01 0
3.831288e+01 -1.947455e+01 0
4.196016e+01 -5.195784e+00 0
4.046363e+01 8.273943e+00 0
3.449619e+01 1.971613e+01 0
2.495379e+01 2.878723e+01 0
1.274613e+01 3.597381e+01 0
0.000000e+00 -8.452762e-14 0
0.000000e+00 0.000000e+00 0
-9.639251e+00 8.647426e+01 0
-5.298089e+00 6.818149e+01 0
-3.505344e+01 3.840821e+01 0
-3.505344e+01 -7.523617e+00 0
-3.505344e+01 -4.234742e+01 0
-3.014385e+01 -4.614168e+01 0
-3.189161e+01 -4.105893e+01 0
-1.914281e+01 -5.389899e+01 0
-6.085332e+00 -4.767411e+01 0
5.890465e+00 -4.532169e+01 0
1.848603e+01 -4.659829e+01 0
3.184395e+01 -4.235866e+01 0
3.999168e+01 -2.559474e+01 0
4.335875e+01 -6.083820e+00 0
4.154301e+01 1.231325e+01 0
3.521795e+01 2.780776e+01 0
2.543698e+01 3.990272e+01 0
1.325247e+01 4.876905e+01 0
0.000000e+00 -1.093887e-13 0
0.000000e+00 0.000000e+00 0
-6.649008e+00 6.160008e+01 0
-1.706576e+00 3.568557e-14 0
0.000000e+00 2.010251e-14 0
0.000000e+00 -3.937792e-15 0
0.000000e+00 -5.181365e+01 0
-1.966785e+01 -6.004379e+01 0
-2.633367e+01 -4.383856e+01 0
-1.537115e+01 -6.618385e+01 0
-3.579302e+00 -5.993623e+01 0
7.574158e+00 -5.754008e+01 0
1.950783e+01 -5.960862e+01 0
3.223931e+01 -5.293326e+01 0
3.866108e+01 -3.107659e+01 0
4.143086e+01 -6.758868e+00 0
4.015179e+01 1.647641e+01 0
3.444899e+01 3.594418e+01 0
2.513237e+01 5.091912e+01 0
1.328609e+01 6.160349e+01 0
0.000000e+00 -1.392220e-13 0
0.000000e+00 0.000000e+00 0
-3.040400e+00 9.767061e+01 0
-3.040400e+00 3.439393e+01 0
0.000000e+00 0.000000e+00 0
0.000000e+00 0.000000e+00 0
0.000000e+00 -5.181365e+01 0
-8.130998e+00 -5.645952e+01 0
-1.892938e+01 -4.535170e+01 0
-1.042669e+01 -7.682574e+01 0
-7.167601e-01 -7.079325e+01 0
8.884901e+00 -6.858372e+01 0
1.924347e+01 -7.145030e+01 0
2.989082e+01 -6.165701e+01 0
3.235504e+01 -3.485593e+01 0
3.272945e+01 -7.585822e+00 0
3.420669e+01 1.934801e+01 0
3.099344e+01 4.294097e+01 0
2.341630e+01 6.122594e+01 0
1.259612e+01 7.409181e+01 0
0.000000e+00 -1.690552e-13 0
0.000000e+00 0.000000e+00 0
-2.543476e+00 9.901454e+01 0
-2.543476e+00 3.439393e+01 0
0.000000e+00 0.000000e+00 0
0.000000e+00 0.000000e+00 0
0.000000e+00 0.000000e+00 0
0.000000e+00 3.871921e-01 0
-8.404480e+00 -4.381592e+01 0
-4.686801e+00 -8.456203e+01 0
2.100275e+00 -7.939412e+01 0
9.719809e+00 -7.765152e+01 0
1.793714e+01 -8.077368e+01 0
2.487280e+01 -6.614416e+01 0
1.870412e+01 -3.393672e+01 0
1.300026e+01 -8.624542e+00 0
1.887446e+01 1.822558e+01 0
2.529778e+01 4.681631e+01 0
2.002134e+01 6.945580e+01 0
1.101812e+01 8.519719e+01 0
0.000000e+00 -1.889441e-13 0
0.000000e+00 0.000000e+00 0
-2.200256e+00 1.002334e+02 0
-2.200256e+00 3.439393e+01 0
0.000000e+00 0.000000e+00 0
0.000000e+00 0.000000e+00 0
0.000000e+00 0.000000e+00 0
0.000000e+00 0.000000e+00 0
-2.462751e+00 -4.446765e+01 0
-6.801022e-01 -8.742605e+01 0
4.032094e+00 -8.530900e+01 0
1.010473e+01 -8.454056e+01 0
1.699125e+01 -8.671808e+01 0
2.161663e+01 -6.242980e+01 0
-2.189771e+00 -2.289344e+01 0
-5.392811e-02 -7.757460e+00 0
4.006381e+00 6.968898e+00 0
1.165221e+01 4.179699e+01 0
1.792865e+01 7.561379e+01 0
9.009855e+00 9.426483e+01 0
0.000000e+00 -2.088330e-13 0
0.000000e+00 0.000000e+00 0
-1.737730e+00 1.012315e+02 0
-1.737730e+00 3.439393e+01 0
0.000000e+00 0.000000e+00 0
0.000000e+00 0.000000e+00 0
0.000000e+00 0.000000e+00 0
0.000000e+00 -5.000000e-05 0
-1.324885e+00 -4.598057e+01 0
8.601051e-01 -9.108733e+01 0
4.579220e+00 -9.026066e+01 0
9.756239e+00 -9.070886e+01 0
1.746554e+01 -9.237278e+01 0
3.096025e+01 -4.681782e+01 0
-2.145590e+00 -5.000000e-05 0
-2.061147e+01 0.000000e+00 0
1.102406e-15 9.734590e+00 0
5.226098e-01 3.340140e+01 0
5.941201e+00 7.219286e+01 0
4.304043e+00 1.032617e+02 0
0.000000e+00 -2.386662e-13 0
0.000000e+00 0.000000e+00 0
-1.292974e+00 1.019842e+02 0
-1.292974e+00 3.439393e+01 0
0.000000e+00 0.000000e+00 0
0.000000e+00 0.000000e+00 0
0.000000e+00 0.000000e+00 0
0.000000e+00 -5.000000e-05 0
-3.569087e-01 -4.670824e+01 0
1.049585e+00 -9.341387e+01 0
3.655542e+00 -9.427252e+01 0
6.896634e+00 -9.752450e+01 0
1.072684e+01 -1.080827e+02 0
1.337377e+01 -9.270982e+01 0
-3.628971e+01 -8.868865e+00 0
-2.061147e+01 2.571589e+01 0
-5.554475e-15 1.018999e-14 0
-2.633172e+00 2.554332e+01 0
-4.865918e+00 7.093190e+01 0
-1.826289e-01 1.004387e+02 0
0.000000e+00 -2.386662e-13 0
0.000000e+00 0.000000e+00 0
-9.471811e-01 1.025342e+02 0
-9.471811e-01 3.439393e+01 0
0.000000e+00 0.000000e+00 0
0.000000e+00 0.000000e+00 0
0.000000e+00 0.000000e+00 0
0.000000e+00 -5.000000e-05 0
-1.926346e+00 -4.745360e+01 0
1.847565e-01 -9.518607e+01 0
2.092095e+00 -9.615201e+01 0
3.475134e+00 -9.783373e+01 0
2.987999e+00 -9.889899e+01 0
-5.048863e+00 -4.948481e+01 0
-3.937354e+01 -5.000000e-05 0
0.000000e+00 0.000000e+00 0
-1.053822e-14 -3.500000e-04 0
-4.995781e+00 2.483475e+01 0
-3.717879e+00 6.883001e+01 0
-1.186836e+00 9.854651e+01 0
0.000000e+00 -2.287218e-13 0
0.000000e+00 0.000000e+00 0
-6.897448e-01 1.029386e+02 0
-6.897448e-01 3.439393e+01 0
0.000000e+00 0.000000e+00 0
0.000000e+00 0.000000e+00 0
0.000000e+00 0.000000e+00 0
0.000000e+00 -5.000000e-05 0
-2.277622e+00 -4.883762e+01 0
-3.578763e-01 -9.746504e+01 0
1.064504e+00 -9.758783e+01 0
1.965033e+00 -9.842719e+01 0
2.196617e+00 -9.949415e+01 0
2.753224e+00 -5.002737e+01 0
2.753224e+00 -5.000000e-05 0
0.000000e+00 0.000000e+00 0
-1.056212e-14 -3.500000e-04 0
-5.007111e+00 2.443174e+01 0
-3.645807e+00 6.727045e+01 0
-1.375354e+00 9.669262e+01 0
0.000000e+00 -2.287218e-13 0
0.000000e+00 0.000000e+00 0
-3.353324e-01 1.032292e+02 0
-3.353324e-01 3.439393e+01 0
0.000000e+00 0.000000e+00 0
0.000000e+00 0.000000e+00 0
0.000000e+00 0.000000e+00 0
0.000000e+00 -5.000000e-05 0
-8.479312e-01 -4.937788e+01 0
-2.214270e-01 -9.854350e+01 0
5.672602e-01 -9.849251e+01 0
1.136455e+00 -9.897442e+01 0
1.401773e+00 -9.969315e+01 0
1.288345e+00 -5.004563e+01 0
1.288345e+00 -5.000000e-05 0
0.000000e+00 0.000000e+00 0
-6.970878e-15 -3.500000e-04 0
-3.304636e+00 2.368480e+01 0
-3.184490e+00 6.539241e+01 0
-1.207094e+00 9.487309e+01 0
0.000000e+00 -2.287218e-13 0
0.000000e+00 0.000000e+00 0
-2.181441e-01 1.032765e+02 0
2.168983e+01 3.439393e+01 0
0.000000e+00 0.000000e+00 0
0.000000e+00 0.000000e+00 0
0.000000e+00 0.000000e+00 0
0.000000e+00 -5.000000e-05 0
-3.215183e-01 -4.947738e+01 0
-1.178663e-01 -9.889946e+01 0
2.930418e-01 -9.895600e+01 0
6.169134e-01 -9.926803e+01 0
7.280010e-01 -9.964720e+01 0
4.865855e-01 -4.991308e+01 0
3.624199e-01 -5.000000e-05 0
0.000000e+00 0.000000e+00 0
-1.738688e-15 -3.500000e-04 0
-8.242478e-01 2.447428e+01 0
-2.643908e+00 6.532062e+01 0
-9.219607e-01 9.348401e+01 0
0.000000e+00 -2.187774e-13 0
0.000000e+00 0.000000e+00 0
-5.849426e-02 8.137505e+01 0
2.184948e+01 1.231999e+01 0
0.000000e+00 0.000000e+00 0
0.000000e+00 0.000000e+00 0
0.000000e+00 0.000000e+00 0
0.000000e+00 -5.000000e-05 0
-4.027564e-01 -4.959553e+01 0
-1.728900e-01 -9.917517e+01 0
1.074516e-01 -9.923286e+01 0
3.131896e-01 -9.941267e+01 0
3.672493e-01 -9.956184e+01 0
2.833745e-01 -4.980234e+01 0
1.592089e-01 -5.547943e-18 0
0.000000e+00 0.000000e+00 0
-3.461834e-16 -3.500000e-04 0
-1.641128e-01 2.565870e+01 0
-2.174130e+00 6.563132e+01 0
-6.551022e-01 9.220915e+01 0
0.000000e+00 -2.287218e-13 0
0.000000e+00 0.000000e+00 0
4.618030e-01 8.126146e+01 0
4.618030e-01 1.231999e+01 0
0.000000e+00 0.000000e+00 0
0.000000e+00 0.000000e+00 0
0.000000e+00 0.000000e+00 0
0.000000e+00 -5.000000e-05 0
-5.057985e-01 -4.971313e+01 0
-2.420854e-01 -9.941768e+01 0
-2.302853e-03 -9.944576e+01 0
1.634708e-01 -9.952979e+01 0
2.253820e-01 -9.961949e+01 0
2.906679e-01 -4.983351e+01 0
2.906679e-01 -2.650000e-03 0
0.000000e+00 0.000000e+00 0
0.000000e+00 0.000000e+00 0
0.000000e+00 2.554332e+01 0
-2.768269e+00 6.490873e+01 0
-6.281031e-01 9.134336e+01 0
0.000000e+00 -2.187774e-13 0
0.000000e+00 0.000000e+00 0
9.056972e-01 8.090975e+01 0
9.056972e-01 1.231999e+01 0
0.000000e+00 0.000000e+00 0
0.000000e+00 0.000000e+00 0
0.000000e+00 0.000000e+00 0
0.000000e+00 -5.000000e-05 0
-3.674773e-01 -4.986949e+01 0
-2.263626e-01 -9.969073e+01 0
-3.690607e-02 -9.964149e+01 0
1.195226e-01 -9.964208e+01 0
2.369307e-01 -9.969234e+01 0
4.296896e-01 -4.987311e+01 0
4.296896e-01 -2.650000e-03 0
0.000000e+00 0.000000e+00 0
0.000000e+00 0.000000e+00 0
0.000000e+00 2.554332e+01 0
-3.082674e+00 6.343050e+01 0
-6.110827e-01 8.949120e+01 0
0.000000e+00 -2.187774e-13 0
0.000000e+00 0.000000e+00 0
1.263013e+00 8.034891e+01 0
1.263013e+00 1.231999e+01 0
0.000000e+00 0.000000e+00 0
0.000000e+00 0.000000e+00 0
0.000000e+00 0.000000e+00 0
0.000000e+00 -5.000000e-05 0
-3.356094e-01 -4.986232e+01 0
-1.980167e-01 -9.975776e+01 0
-3.803405e-02 -9.979427e+01 0
1.154435e-01 -9.980571e+01 0
2.940760e-01 -9.993201e+01 0
5.851158e-01 -5.002773e+01 0
5.851158e-01 -2.650000e-03 0
0.000000e+00 0.000000e+00 0
0.000000e+00 0.000000e+00 0
0.000000e+00 2.554332e+01 0
-1.894238e+00 6.243349e+01 0
-4.911461e-01 8.825241e+01 0
0.000000e+00 -2.187774e-13 0
0.000000e+00 0.000000e+00 0
1.474454e+00 7.963717e+01 0
1.474454e+00 1.231999e+01 0
0.000000e+00 0.000000e+00 0
0.000000e+00 0.000000e+00 0
0.000000e+00 0.000000e+00 0
0.000000e+00 -5.000000e-05 0
-2.960253e-01 -5.000942e+01 0
-1.554950e-01 -9.999185e+01 0
-3.258562e-02 -9.995732e+01 0
8.586209e-02 -9.997671e+01 0
2.195210e-01 -1.001656e+02 0
3.253446e-01 -5.016635e+01 0
3.253446e-01 -2.650000e-03 0
0.000000e+00 0.000000e+00 0
0.000000e+00 0.000000e+00 0
0.000000e+00 2.554332e+01 0
-1.483047e+00 6.200299e+01 0
-1.148518e+00 8.756883e+01 0
0.000000e+00 -2.187774e-13 0
0.000000e+00 0.000000e+00 0
1.503330e+00 7.886328e+01 0
1.503330e+00 1.231999e+01 0
0.000000e+00 0.000000e+00 0
0.000000e+00 0.000000e+00 0
0.000000e+00 0.000000e+00 0
0.000000e+00 -5.000000e-05 0
-9.805044e-02 -5.000425e+01 0
-8.098680e-02 -1.000235e+02 0
-2.240517e-02 -1.000375e+02 0
4.085108e-02 -1.000597e+02 0
9.239043e-02 -1.001733e+02 0
5.923974e-02 -5.013435e+01 0
3.845946e-02 -2.650000e-03 0
0.000000e+00 0.000000e+00 0
0.000000e+00 0.000000e+00 0
0.000000e+00 2.554332e+01 0
-2.200227e+00 6.207597e+01 0
-3.706631e+00 8.673768e+01 0
0.000000e+00 -2.187774e-13 0
0.000000e+00 0.000000e+00 0
1.364127e+00 7.812245e+01 0
1.364127e+00 1.231999e+01 0
0.000000e+00 0.000000e+00 0
0.000000e+00 0.000000e+00 0
0.000000e+00 0.000000e+00 0
0.000000e+00 -5.000000e-05 0
-5.497149e-02 -5.002687e+01 0
-4.320832e-02 -1.000683e+02 0
-1.642408e-02 -1.000801e+02 0
7.842316e-03 -1.000924e+02 0
1.451841e-02 -1.001841e+02 0
-3.755557e-02 -5.013030e+01 0
0.000000e+00 0.000000e+00 0
0.000000e+00 0.000000e+00 0
0.000000e+00 0.000000e+00 0
0.000000e+00 2.554332e+01 0
-3.012534e+00 6.349805e+01 0
-1.069056e+01 8.532917e+01 0
0.000000e+00 -1.988885e-13 0
0.000000e+00 0.000000e+00 0
1.113274e+00 7.748882e+01 0
1.113274e+00 1.231999e+01 0
0.000000e+00 0.000000e+00 0
0.000000e+00 0.000000e+00 0
0.000000e+00 0.000000e+00 0
0.000000e+00 0.000000e+00 0
-4.786952e-02 -4.995860e+01 0
-4.742770e-04 -1.000052e+02 0
-7.075315e-03 -1.000892e+02 0
-7.120745e-03 -1.000909e+02 0
-1.699958e-02 -1.001276e+02 0
-5.964708e-02 -5.007923e+01 0
0.000000e+00 0.000000e+00 0
0.000000e+00 0.000000e+00 0
0.000000e+00 0.000000e+00 0
0.000000e+00 2.554332e+01 0
-1.005911e+01 6.979232e+01 0
-9.143403e+00 8.368248e+01 0
0.000000e+00 -1.690552e-13 0
0.000000e+00 0.000000e+00 0
8.209941e-01 7.700074e+01 0
8.209941e-01 1.231999e+01 0
0.000000e+00 0.000000e+00 0
0.000000e+00 0.000000e+00 0
0.000000e+00 0.000000e+00 0
0.000000e+00 -1.210000e-02 0
-4.786952e-02 -5.002971e+01 0
1.084351e-02 -1.000528e+02 0
-3.813453e-03 -1.000737e+02 0
-1.184545e-02 -1.000824e+02 0
-2.102265e-02 -1.001312e+02 0
-2.370680e-02 -5.008733e+01 0
0.000000e+00 0.000000e+00 0
0.000000e+00 0.000000e+00 0
0.000000e+00 0.000000e+00 0
0.000000e+00 2.554332e+01 0
-8.434732e+00 6.272999e+01 0
3.769546e-02 7.534844e+01 0
0.000000e+00 -1.591108e-13 0
0.000000e+00 0.000000e+00 0
5.458302e-01 7.666161e+01 0
5.458302e-01 1.231999e+01 0
0.000000e+00 0.000000e+00 0
0.000000e+00 0.000000e+00 0
0.000000e+00 0.000000e+00 0
0.000000e+00 0.000000e+00 0
0.000000e+00 -5.000045e+01 0
3.494798e-04 -1.000324e+02 0
-6.830706e-03 -1.000664e+02 0
-1.513696e-02 -1.000736e+02 0
-2.461289e-02 -1.001156e+02 0
-5.278848e-02 -5.007653e+01 0
0.000000e+00 0.000000e+00 0
0.000000e+00 0.000000e+00 0
0.000000e+00 0.000000e+00 0
0.000000e+00 0.000000e+00 0
0.000000e+00 3.513192e+01 0
2.888396e+00 7.433192e+01 0
0.000000e+00 -1.591108e-13 0
0.000000e+00 0.000000e+00 0
3.180365e-01 7.645077e+01 0
3.180365e-01 1.231999e+01 0
0.000000e+00 0.000000e+00 0
0.000000e+00 0.000000e+00 0
0.000000e+00 0.000000e+00 0
0.000000e+00 0.000000e+00 0
0.000000e+00 -5.000000e+01 0
0.000000e+00 -1.000281e+02 0
-8.221220e-03 -1.000583e+02 0
-1.701538e-02 -1.000645e+02 0
-2.663695e-02 -1.000932e+02 0
-7.080137e-02 -5.005894e+01 0
0.000000e+00 0.000000e+00 0
0.000000e+00 0.000000e+00 0
0.000000e+00 0.000000e+00 0
0.000000e+00 0.000000e+00 0
0.000000e+00 3.513192e+01 0
3.141237e+00 7.558220e+01 0
0.000000e+00 -1.789997e-13 0
0.000000e+00 0.000000e+00 0
1.243402e-01 7.634116e+01 0
1.243402e-01 1.231999e+01 0
0.000000e+00 0.000000e+00 0
0.000000e+00 0.000000e+00 0
0.000000e+00 0.000000e+00 0
0.000000e+00 0.000000e+00 0
0.000000e+00 -5.000000e+01 0
0.000000e+00 -1.000238e+02 0
-8.791551e-03 -1.000494e+02 0
-1.791917e-02 -1.000550e+02 0
-2.769735e-02 -1.000614e+02 0
-7.399288e-02 -5.003203e+01 0
0.000000e+00 0.000000e+00 0
0.000000e+00 0.000000e+00 0
0.000000e+00 0.000000e+00 0
0.000000e+00 0.000000e+00 0
0.000000e+00 3.513192e+01 0
3.457759e+00 7.673038e+01 0
0.000000e+00 -1.789997e-13 0
0.000000e+00 0.000000e+00 0
-7.095953e-02 7.632549e+01 0
-7.095953e-02 1.231999e+01 0
0.000000e+00 0.000000e+00 0
0.000000e+00 0.000000e+00 0
0.000000e+00 0.000000e+00 0
0.000000e+00 0.000000e+00 0
0.000000e+00 -5.000000e+01 0
0.000000e+00 -1.000193e+02 0
-8.909708e-03 -1.000403e+02 0
-1.812777e-02 -1.000454e+02 0
-2.792888e-02 -1.000367e+02 0
-4.675974e-02 -5.001229e+01 0
0.000000e+00 0.000000e+00 0
0.000000e+00 0.000000e+00 0
0.000000e+00 0.000000e+00 0
0.000000e+00 0.000000e+00 0
-9.295619e+01 3.513192e+01 0
1.160823e+01 7.817166e+01 0
0.000000e+00 -1.889441e-13 0
0.000000e+00 0.000000e+00 0
-2.047125e-01 7.641266e+01 0
-2.047125e-01 1.231999e+01 0
0.000000e+00 0.000000e+00 0
0.000000e+00 0.000000e+00 0
0.000000e+00 0.000000e+00 0
0.000000e+00 0.000000e+00 0
0.000000e+00 -5.000000e+01 0
0.000000e+00 -1.000149e+02 0
-8.702075e-03 -1.000312e+02 0
-1.777621e-02 -1.000358e+02 0
-2.748473e-02 -1.000326e+02 0
-2.519098e-02 -5.001306e+01 0
0.000000e+00 0.000000e+00 0
0.000000e+00 0.000000e+00 0
-1.028143e-13 0.000000e+00 0
-4.874048e+01 3.340037e+01 0
-1.416967e+02 2.312729e+01 0
1.729086e+01 4.254333e+01 0
0.000000e+00 -2.287218e-13 0
0.000000e+00 0.000000e+00 0
-1.434769e-01 7.653175e+01 0
-1.434769e-01 1.231999e+01 0
0.000000e+00 0.000000e+00 0
0.000000e+00 0.000000e+00 0
0.000000e+00 0.000000e+00 0
0.000000e+00 0.000000e+00 0
0.000000e+00 -5.000000e+01 0
0.000000e+00 -1.000106e+02 0
-8.157095e-03 -1.000224e+02 0
-1.681517e-02 -1.000265e+02 0
-2.627627e-02 -1.000293e+02 0
-2.243723e-02 -5.001460e+01 0
0.000000e+00 0.000000e+00 0
0.000000e+00 0.000000e+00 0
-1.028143e-13 3.340032e+01 0
-4.874048e+01 6.680068e+01 0
-4.874048e+01 2.506088e+01 0
7.587710e+00 5.212210e+01 0
0.000000e+00 -2.486107e-13 0
0.000000e+00 -3.126761e-18 0
-2.527649e-02 7.655722e+01 0
-2.527649e-02 1.231999e+01 0
0.000000e+00 0.000000e+00 0
0.000000e+00 0.000000e+00 0
0.000000e+00 0.000000e+00 0
0.000000e+00 0.000000e+00 0
0.000000e+00 -5.000000e+01 0
0.000000e+00 -1.000066e+02 0
-7.157189e-03 -1.000142e+02 0
-1.499948e-02 -1.000176e+02 0
-2.394321e-02 -1.000269e+02 0
-2.268841e-02 -5.001693e+01 0
0.000000e+00 0.000000e+00 0
0.000000e+00 0.000000e+00 0
0.000000e+00 0.000000e+00 0
0.000000e+00 -2.427411e-13 0
5.841239e+01 -5.885491e+01 0
1.259326e+01 1.128554e+00 0
0.000000e+00 -2.486107e-13 0
0.000000e+00 -7.467559e-04 0
0.000000e+00 7.655722e+01 0
0.000000e+00 1.231999e+01 0
0.000000e+00 0.000000e+00 0
0.000000e+00 0.000000e+00 0
0.000000e+00 0.000000e+00 0
0.000000e+00 0.000000e+00 0
0.000000e+00 -5.000000e+01 0
0.000000e+00 -1.000033e+02 0
-5.515350e-03 -1.000072e+02 0
-1.189826e-02 -1.000096e+02 0
-1.979047e-02 -1.000215e+02 0
-3.658900e-02 -5.001587e+01 0
0.000000e+00 0.000000e+00 0
0.000000e+00 0.000000e+00 0
0.000000e+00 0.000000e+00 0
0.000000e+00 -5.797320e+01 0
5.841239e+01 -7.115807e+01 0
-1.346157e+01 5.948726e+01 0
0.000000e+00 -3.082772e-13 0
0.000000e+00 0.000000e+00 0
0.000000e+00 0.000000e+00 0
0.000000e+00 0.000000e+00 0
0.000000e+00 0.000000e+00 0
0.000000e+00 0.000000e+00 0
0.000000e+00 0.000000e+00 0
0.000000e+00 0.000000e+00 0
0.000000e+00 -5.000000e+01 0
0.000000e+00 -1.000009e+02 0
-3.066651e-03 -1.000021e+02 0
-6.957703e-03 -1.000032e+02 0
-1.256443e-02 -1.000020e+02 0
-2.831272e-02 -5.000000e+01 0
0.000000e+00 0.000000e+00 0
0.000000e+00 0.000000e+00 0
0.000000e+00 0.000000e+00 0
0.000000e+00 -5.797320e+01 0
-5.841219e+01 -4.508428e+01 0
-7.212572e+01 5.930883e+01 0
0.000000e+00 -1.988885e-13 0
0.000000e+00 0.000000e+00 0
0.000000e+00 0.000000e+00 0
0.000000e+00 0.000000e+00 0
0.000000e+00 0.000000e+00 0
0.000000e+00 0.000000e+00 0
0.000000e+00 0.000000e+00 0
0.000000e+00 0.000000e+00 0
0.000000e+00 -5.000000e+01 0
0.000000e+00 -1.000000e+02 0
-6.676556e-18 -1.000000e+02 0
-1.669139e-17 -1.000000e+02 0
-3.346241e-17 -1.000000e+02 0
-3.338278e-17 -5.000000e+01 0
0.000000e+00 0.000000e+00 0
0.000000e+00 0.000000e+00 0
0.000000e+00 0.000000e+00 0
0.000000e+00 0.000000e+00 0
-4.872769e-13 0.000000e+00 0
-3.878326e-13 0.000000e+00 0
0.000000e+00 0.000000e+00 0
</DataArray>
<DataArray Name="Type and Neighbourhood" type="Float64" format="ascii" NumberOfComponents="3">
0.000000e+00 0.000000e+00 0
0.000000e+00 0.000000e+00 0
0.000000e+00 0.000000e+00 0
0.000000e+00 0.000000e+00 0
0.000000e+00 0.000000e+00 0
0.000000e+00 0.000000e+00 0
0.000000e+00 0.000000e+00 0
0.000000e+00 0.000000e+00 0